TITLE = "Example Grid File"
FILETYPE = GRID
VARIABLES = "X" "Y" "Z"
Zone
ZoneType=FEPOLYHEDRON
NODES=5392
FACES=13696
ELEMENTS=4188
TotalNumFaceNodes=55241
NumConnectedBoundaryFaces=0
TotalNumBoundaryConnections=0
0.833344
1.00332
0.666667
0.833343
1.00202
0.666725
0.833613
1.0031
0.669429
0.836306
1.00609
0.683216
0.86063
0.683016
0.854221
0.672252
0.84047
0.675153
0.84483
0.674014
0.842572
0.671014
0.838708
0.751698
0.918594
0.925029
0.936446
0.591213
0.758373
0.925556
1.00286
0.750001
0.666678
0.916822
0.833418
1.00215
0.583363
0.750122
0.667648
0.917365
0.834488
1.00431
0.670402
0.837241
1.00679
0.586075
0.752816
0.919965
0.838056
1.00506
0.856251
0.85094
0.599671
0.766469
0.676368
0.677588
0.931637
0.845728
0.84789
0.588809
0.755813
0.671955
0.922918
0.839969
0.93111
0.84416
0.590467
0.757774
0.67252
0.924494
0.840548
0.587603
0.754499
0.921177
0.668351
0.58429
0.586968
0.835074
0.751025
0.75366
1.00376
0.918168
0.921139
0.592991
0.840073
0.759935
1.00894
0.922592
0.928157
0.594069
0.849916
0.761545
0.928773
0.930598
0.674682
0.588495
0.589064
0.843455
0.755554
0.756153
0.922374
0.922881
0.937112
0.750027
0.917024
1.06049
0.709098
0.875786
1.05746
0.589341
0.756155
1.05601
0.594795
0.762903
0.901419
0.720108
0.891092
1.06005
0.625747
0.792438
0.959263
1.06502
0.967273
0.891134
0.971403
0.898399
0.636647
0.804336
0.75
0.666667
0.917008
0.833341
1.05265
1.00307
1.00535
0.708334
0.666669
0.668896
0.79167
0.875036
0.833362
0.835655
1.00261
0.958953
1.05063
1.00192
1.00349
1.00624
0.671004
0.599255
0.767266
0.683118
0.678642
0.904192
0.856774
0.855888
0.641403
0.724753
0.679942
0.68032
0.855978
0.808881
0.890671
0.849532
0.852143
0.591406
0.759184
0.67486
1.07197
0.626697
0.75177
0.710035
0.793394
0.750295
0.918488
0.876807
0.960648
0.91721
1.05614
0.922757
0.923987
0.882569
0.967958
0.927487
1.04978
0.894857
0.93359
0.936932
0.592389
0.592812
0.632958
0.759441
0.760078
0.716486
0.800513
0.927155
0.927382
0.884812
1.00471
1.05067
1.0693
0.752321
0.750007
0.66694
0.625007
0.70835
0.668417
0.919015
0.916862
0.833671
0.791713
0.875167
0.835111
1.00218
0.959139
1.05083
1.07209
1.00317
0.920569
0.838949
1.00538
0.96345
1.05883
1.0088
1.01211
0.904427
0.854349
0.850391
0.895481
0.5966
0.596907
0.763388
0.764076
0.634685
0.718121
0.675802
0.63581
0.719493
0.676281
0.931545
0.931463
0.842739
0.802096
0.88798
0.845148
0.849199
0.804132
0.889084
0.845745
0.710731
0.794066
1.00496
0.8774
1.00459
0.960988
1.06001
1.07172
0.667294
0.750639
0.708625
0.710424
0.83398
0.917355
0.875398
0.877111
1.06088
1.00158
1.05266
1.06217
0.599477
0.766877
0.904771
0.900366
0.67276
0.58762
0.638522
0.754433
0.721891
0.843479
0.805649
0.922869
0.882764
1.06545
1.00988
1.05046
1.05138
0.678521
0.591201
0.638615
0.854859
0.722121
0.758819
0.853752
0.806772
0.901004
0.895293
0.594927
0.678339
0.761989
0.717584
0.718141
0.894141
0.893699
0.848722
0.929892
0.886918
0.887223
1.07203
0.625272
0.627074
0.791979
0.793765
0.959245
0.960621
1.00537
0.963398
1.05847
0.965287
0.969024
0.932132
0.886434
0.968023
0.892729
0.634101
0.634555
0.80161
0.802403
0.594778
0.76333
0.901598
1.06507
0.75
0.708337
0.916913
0.87507
1.05109
1.05147
0.625002
0.79168
0.958909
1.05057
0.88351
0.701732
0.875912
0.62901
0.712394
0.795692
0.879125
0.962855
0.874045
0.877459
0.660048
0.828302
0.710706
0.794041
0.961432
0.877375
0.961232
0.689527
0.731201
0.856201
0.897863
1.0218
0.635931
0.719391
0.802924
1.03277
0.639133
0.808892
0.722802
0.807955
0.883261
0.743464
0.647838
0.814534
0.772867
0.981047
0.93951
0.992602
0.914327
0.982459
0.958465
0.882526
0.618362
0.78538
0.959608
0.666667
0.83334
0.670145
0.836871
0.811258
0.885957
0.857688
0.858829
0.683206
0.662209
0.703878
0.682474
0.681824
0.855469
0.830768
0.878925
0.850175
0.853921
0.586148
0.752812
0.919892
0.959344
0.75
0.667772
0.916871
0.834453
1.00143
0.586411
0.7531
0.669489
0.628646
0.712159
0.836258
0.795376
0.879219
1.00632
0.856406
0.856158
0.886025
0.856255
0.809918
0.806513
0.62054
0.599139
0.598466
0.599851
0.745583
0.787529
0.765845
0.765405
0.766786
0.674747
0.678277
0.913712
0.92476
0.931624
0.751117
0.91779
0.919714
0.591387
0.797932
0.758261
0.594685
0.805772
0.762436
0.750075
0.916818
1.02539
1.06018
1.06874
1.06091
0.710333
0.688209
0.729883
0.710002
0.877001
0.854894
0.896579
0.87669
1.05998
1.02548
1.05991
0.588368
0.630957
0.75505
0.714682
1.06309
1.05454
1.03383
1.05188
0.597131
0.636557
0.765283
0.720599
0.763159
0.904158
0.880145
0.901528
0.901778
0.721186
0.721252
0.699172
0.740967
0.89312
0.892774
0.870804
1.02683
1.05997
1.06027
1.06914
0.626977
0.646524
0.626641
0.793667
0.771552
0.81322
0.793346
0.960331
0.938307
0.980207
0.960109
1.06378
1.06574
1.06726
0.968764
0.988792
0.968638
0.89249
0.867408
0.894844
0.91229
0.972659
0.971349
0.951928
0.900934
0.877798
0.900501
0.894421
0.63777
0.6378
0.615763
0.657454
0.805246
0.805577
0.78302
0.825994
0.669034
0.708333
0.919215
0.916961
0.835704
0.791668
0.875046
1.00511
1.02496
0.646304
0.689874
0.667448
0.81488
0.856547
0.834142
0.982168
1.02559
1.0007
0.671837
1.06713
1.00353
0.767021
0.765699
0.64004
0.72496
0.680943
0.904745
0.904474
0.886139
0.856794
0.85553
0.880407
0.641067
0.640186
0.724408
0.723598
0.659224
0.700911
0.679385
0.659449
0.701174
0.679469
0.839926
0.883545
0.855761
0.807851
0.808028
0.894849
0.888636
0.895576
0.846304
0.827034
0.874543
0.849811
0.853294
0.828916
0.874026
0.850464
1.06905
1.07192
1.072
0.751342
0.731119
0.772788
0.918044
0.897814
0.939555
0.946382
0.927766
1.0048
1.00464
1.02514
1.07112
1.06784
0.731546
0.773213
0.750808
0.626689
0.710031
0.667989
0.689444
0.647766
0.898219
0.93997
0.917472
0.793367
0.8767
0.834676
0.856129
0.81446
0.96009
1.06932
1.06505
1.07206
1.00218
1.02869
0.981559
0.960373
1.05063
1.01332
1.032
0.991997
0.904727
0.903318
0.903818
0.854766
0.854301
0.87973
0.617568
0.596017
0.617744
0.596074
0.742631
0.78444
0.762949
0.743028
0.785231
0.763128
0.935323
0.913216
0.931345
0.710494
0.919014
0.877251
1.02438
0.689305
0.855981
1.02227
0.641505
0.81036
0.724913
0.809689
0.712534
0.71497
0.879408
1.06386
1.03274
0.765512
0.723022
0.886057
0.857529
0.904279
0.883365
0.880383
0.680834
0.703458
0.702698
0.722642
0.70027
0.700342
0.879
0.877027
0.851338
0.89477
0.872952
0.87275
0.647597
0.586482
0.627844
0.66985
0.628701
0.647323
0.814312
0.753171
0.711205
0.689002
0.730673
0.794558
0.83656
0.795385
0.814009
0.77234
0.980968
0.920001
0.878066
0.855676
0.897341
0.962066
0.980837
0.939027
1.06775
0.989924
0.84003
0.869473
0.899268
0.871917
1.0323
0.878874
0.855139
0.881043
0.895953
0.87481
0.661793
0.661006
0.639245
0.658577
0.658624
0.828802
0.830208
0.806628
0.826899
0.827436
0.669066
0.793801
0.752275
0.835734
0.961196
0.918997
1.06904
1.02526
1.06784
0.730714
0.730981
0.71061
0.689034
0.667656
0.751006
0.897399
0.89764
0.877277
0.855717
0.834339
0.917665
1.0629
1.0266
1.00055
1.02452
0.886164
0.912422
0.885403
0.630197
0.592465
0.633123
0.675811
0.620124
0.797
0.759189
0.716585
0.745136
0.800264
0.786829
1.04157
1.0328
1.01781
0.638693
0.597465
0.636419
0.68094
0.61932
0.808466
0.806188
0.856461
0.76494
0.720255
0.74448
0.805208
0.856091
0.786542
0.904092
0.880037
0.883078
0.597482
0.742041
0.742159
0.76434
0.914271
1.06908
1.02511
1.06923
0.627256
0.647345
0.772383
0.772643
0.793945
0.814051
0.939107
0.939307
0.960552
0.980925
1.06627
0.970016
0.99175
0.994696
0.940637
0.912734
0.913535
0.923638
0.919727
0.951698
0.973689
0.989918
0.947741
0.903061
0.879206
0.616899
0.616935
0.783992
0.784227
0.883651
0.809387
0.961654
0.708333
0.791668
0.875038
0.959202
0.959476
0.71061
0.877376
1.02679
0.6876
0.854279
1.02507
0.583998
0.750803
0.918083
0.714981
0.882186
1.03113
0.586231
0.753081
0.921445
0.723123
1.02645
0.645928
0.650326
0.627322
0.812606
0.692029
0.816999
0.710677
0.794061
0.979807
0.858717
0.984416
0.877598
0.961732
1.02912
1.05533
0.986954
0.964388
0.883864
1.0478
0.793802
0.688167
0.813177
0.981734
0.854847
0.981032
1.02689
0.729269
0.895971
0.62949
0.659105
0.63135
0.796195
0.700774
0.826525
0.714798
0.798493
1.03237
0.638295
0.661337
0.833157
0.703057
0.831212
1.02675
0.770936
0.937742
1.02734
1.03164
1.02986
0.945557
0.944125
0.986101
0.943338
0.947188
0.906535
0.865079
0.909335
0.863366
0.649275
0.608562
0.649339
0.648423
0.607595
0.731768
0.690944
0.733675
0.691085
0.732621
0.69011
0.732705
0.773445
0.815948
0.775242
0.81607
0.774278
0.815129
0.774281
0.898571
0.857621
0.900409
0.857888
0.899291
0.856834
0.899709
0.940428
0.983027
0.942184
0.98422
0.941008
0.982772
0.941695
0.729827
0.688203
0.729543
0.771494
0.813198
0.771207
0.981518
0.93869
0.93828
0.896533
0.854883
0.896268
0.981371
0.938415
0.938218
0.617437
0.65632
0.614647
0.61163
0.654729
0.613043
0.653338
0.742453
0.698055
0.739785
0.736938
0.696592
0.738256
0.695258
0.821822
0.784183
0.824046
0.820541
0.781649
0.778488
0.779774
0.61965
0.661312
0.61953
0.832246
0.788215
0.787827
0.744861
0.703254
0.745142
0.83186
0.787093
0.787566
0.708333
0.791668
0.875068
0.833343
0.83573
1.02547
1.00321
1.00396
0.981325
0.645834
0.687501
0.666668
0.66711
0.666667
0.812505
0.854184
0.833349
0.833829
0.83334
1.00237
0.980317
1.0242
1.00189
1.00235
0.666799
0.833765
1.00282
0.668858
0.835541
1.00341
0.668627
0.668589
0.669929
0.627736
0.711099
0.835519
0.835432
0.836797
0.794541
0.878099
1.00518
1.00539
1.00701
0.962159
1.00628
0.641174
0.72504
0.683101
0.681016
0.834575
0.683156
0.670241
0.673869
0.630508
0.713977
0.671717
0.838087
0.839382
0.842588
0.797845
0.881603
0.584559
0.751258
0.751879
0.730857
0.772536
0.752304
0.918329
0.918694
0.897653
0.939542
0.919225
0.923939
0.923684
0.925308
0.903713
0.946655
0.926964
1.00295
1.00275
1.00351
1.02496
0.980955
0.729168
0.770835
0.750489
0.750003
0.750001
0.895908
0.937817
0.917236
0.91682
0.916846
0.667897
0.625964
0.709323
0.834685
0.79273
0.876268
1.00457
0.960383
0.585144
0.751816
0.671425
0.670513
0.669955
0.649528
0.69129
0.919026
0.838431
0.837289
0.836721
0.816273
0.858215
0.836515
1.00696
1.00606
0.984768
1.03128
1.00758
0.585239
0.586581
0.751962
0.7533
0.919081
0.920628
0.920969
0.839198
0.880238
0.7962
1.00661
0.964426
0.832356
0.599812
0.766684
0.678048
0.655497
0.697201
0.675659
0.932152
0.847717
0.844409
0.823529
0.590482
0.588293
0.757476
0.755196
0.92269
0.924985
0.64752
0.689188
0.668538
0.668961
0.587924
0.586574
0.58695
0.607775
0.814219
0.855916
0.835241
0.835683
0.754676
0.75324
0.75363
0.732917
0.774457
0.981827
1.02814
1.00372
1.00456
0.921899
0.921168
0.942211
0.920467
0.90014
0.594675
0.613789
0.59229
0.861337
0.840032
0.841303
0.818938
0.761593
0.738985
0.780914
0.759201
1.05551
0.708376
0.875088
1.05381
0.588566
0.590365
0.589306
0.610123
0.755414
0.776953
0.757171
0.756064
0.73542
1.05258
0.59477
1.05489
0.62504
0.791716
0.958773
1.03167
1.06108
0.945009
0.965228
0.966083
0.886273
0.888463
0.752248
0.75
0.666667
0.667353
0.6875
0.938188
0.917592
0.916988
0.83334
0.834029
0.812503
0.854185
1.05839
1.05176
1.0037
1.02516
0.981137
0.983423
0.625001
0.708862
0.708335
0.708334
0.666704
0.687503
0.645835
0.669044
0.792197
0.791673
0.791668
0.875544
0.875045
0.875035
0.833391
0.85421
0.812519
0.835731
1.00333
1.02474
0.980745
0.959281
0.958859
0.959089
1.05518
1.05147
1.05058
1.0016
1.02525
0.980171
1.00428
0.669603
1.00364
0.96218
1.03254
1.00761
1.00583
0.984459
0.671959
0.629298
0.712704
0.593275
0.596829
0.788918
0.767138
0.766707
0.683198
0.66177
0.704077
0.682209
0.6786
0.636582
0.720853
0.832935
0.832176
0.641489
0.724856
0.67805
0.680734
0.832099
0.809427
0.626953
0.627315
0.75254
0.710303
0.710661
0.793647
0.794014
0.919297
0.877027
0.877445
0.96073
0.961338
1.05839
1.05745
0.923062
0.943945
0.923378
0.903458
0.883006
0.884142
0.966629
0.968964
0.929376
0.907744
0.982915
1.05495
1.0508
1.05061
0.752389
0.750042
0.729172
0.770843
0.669198
0.919101
0.916837
0.895948
0.937833
0.8359
1.0044
0.921733
0.941963
0.900014
0.920281
0.921356
0.880575
0.841137
0.861026
0.817842
1.00557
1.03013
0.983332
0.963642
0.964261
0.962705
1.06154
1.05664
1.05913
1.00977
1.03085
0.986875
0.830796
0.594709
0.597322
0.761455
0.76459
0.636469
0.634028
0.719908
0.717459
0.912763
0.843613
0.864575
0.821393
0.803838
0.801307
0.71073
0.794065
0.983116
0.877399
0.982784
0.961164
0.711521
0.878223
0.586188
0.599796
0.598361
0.619845
0.752867
0.788158
0.766838
0.766327
0.766934
0.745866
0.673724
0.651817
0.693746
0.672756
0.637668
0.721047
0.823305
0.804726
0.639002
0.831337
0.722546
0.830316
0.807521
0.628166
0.794853
0.961849
0.983766
0.96315
0.75
0.750192
0.729167
0.770834
0.93802
0.916893
0.917032
0.916935
0.895942
0.607812
0.628239
0.649507
0.630166
0.629044
0.712518
0.691202
0.732863
0.711635
0.713521
0.774497
0.794942
0.816201
0.796838
0.795733
0.879311
0.85792
0.899625
0.878433
0.880208
0.941448
0.962353
0.963764
0.710601
0.689896
0.731461
0.709012
0.793932
0.773128
0.814898
0.792346
0.94007
0.961265
0.961547
0.959947
0.877275
0.856565
0.898141
0.875697
0.961184
0.939985
0.9597
0.638007
0.633381
0.614328
0.634275
0.655992
0.721394
0.717155
0.697748
0.739415
0.717779
0.804924
0.800269
0.781138
0.801382
0.640555
0.639026
0.61828
0.660013
0.809955
0.787017
0.808675
0.809198
0.7241
0.722908
0.701843
0.743777
0.809126
0.808255
0.786248
0.960121
0.959552
0.667379
0.6875
0.834054
0.812503
0.854182
0.669279
0.628017
0.711786
0.69142
0.670025
0.649541
0.835956
0.794694
0.878519
0.858189
0.836738
0.816243
0.810791
0.810646
0.673561
0.662352
0.70406
0.682316
0.586386
0.606988
0.753078
0.731995
0.773668
0.920048
0.898933
0.940893
0.959728
0.959282
0.959406
0.750595
0.729167
0.770834
0.917384
0.895923
0.937938
0.585928
0.586571
0.607357
0.752606
0.732946
0.753252
0.774035
0.648663
0.669753
0.690342
0.628265
0.62875
0.712404
0.711663
0.919325
0.815389
0.836497
0.857135
0.794959
0.795459
0.879417
0.878595
0.795186
0.810074
0.809816
0.809495
0.590226
0.620671
0.598908
0.756902
0.745806
0.788011
0.766096
0.653898
0.67561
0.695671
0.592236
0.612236
0.797794
0.799076
0.759092
0.737406
0.779194
0.729354
0.771012
0.750193
0.916951
0.896061
0.937926
0.916923
0.609118
0.590409
0.630903
0.632013
0.735222
0.775828
0.757097
0.715008
0.71559
0.617812
0.597401
0.76538
0.744055
0.786686
0.765104
0.689859
0.669061
0.708867
0.708333
0.919174
0.940298
0.917448
0.938104
0.856551
0.814776
0.835729
0.792169
0.791668
0.875613
0.875041
0.628454
0.713546
0.693612
0.650925
0.673777
0.788429
0.766508
0.765601
0.787336
0.641347
0.639521
0.724948
0.724227
0.70198
0.659784
0.680966
0.752121
0.688174
0.729443
0.835704
0.917577
0.91714
0.854876
0.896199
1.00376
1.0566
1.02693
0.666752
0.688007
0.708441
0.68754
0.833431
0.854689
0.875128
0.854235
1.02578
1.00137
1.05578
1.0253
0.667372
0.585237
0.626912
0.834285
0.752039
0.710265
0.793672
1.00363
0.919445
0.877213
0.961284
0.587287
0.690542
0.671433
0.753952
0.713308
0.732121
0.691491
0.733063
0.735612
0.692036
0.733677
0.69396
0.85724
0.880684
0.838248
0.92396
0.92041
0.922067
0.921149
0.904095
0.859071
0.900618
0.861556
0.898968
0.858367
0.90028
1.02747
1.00434
1.03327
0.669618
0.586845
0.630001
0.836898
0.753874
0.713444
0.797101
1.00323
0.92049
0.963364
0.882035
0.596468
0.680918
0.720755
0.724989
0.76662
0.766404
0.703264
0.745208
1.00302
1.02672
1.05496
1.02653
0.646224
0.625103
0.645873
0.626232
0.669267
0.648745
0.650355
0.630063
0.649615
0.585648
0.668992
0.628252
0.64911
0.648136
0.6074
0.813018
0.791777
0.812553
0.709576
0.792961
0.692032
0.713483
0.691359
0.835946
0.815432
0.817027
0.796737
0.816319
0.752342
0.71163
0.731478
0.690812
0.689807
0.732459
0.835809
0.795013
0.773151
0.815832
0.814839
0.774089
0.980554
0.958714
0.979932
0.876454
0.96054
0.858712
0.880192
0.858092
1.00379
0.982948
0.984275
0.96382
0.984133
0.919501
0.878687
0.898312
0.857645
0.856553
0.899502
1.0059
0.962896
0.940221
0.984038
0.9826
0.941523
1.0537
1.02874
1.03229
1.05537
1.03084
1.02921
0.966233
0.986278
0.921914
0.881482
0.965982
1.00757
0.945042
0.985638
0.94303
0.924608
0.883927
0.840932
0.905587
0.862691
1.0478
1.03132
0.632159
0.715643
0.799576
0.667313
0.813122
0.771096
0.709002
0.689896
0.68821
0.83401
0.792339
0.8149
0.813213
0.981625
0.98326
0.960054
0.875685
0.856565
0.854886
0.98127
0.959582
0.982588
1.0551
1.02681
1.0036
0.731091
0.729209
0.750091
0.729681
0.689421
0.897845
0.895951
0.916829
0.896381
0.85613
1.02856
0.629509
0.606303
0.64965
0.607754
0.610007
0.649046
0.607276
0.651781
0.63023
0.675717
0.639599
0.657939
0.657289
0.589677
0.673052
0.654836
0.613153
0.611179
0.652842
0.796329
0.772973
0.816387
0.774438
0.815865
0.818822
0.776827
0.773966
0.713681
0.797219
0.722945
0.699635
0.698987
0.824627
0.806518
0.825454
0.756598
0.696556
0.738312
0.73638
0.694678
0.822589
0.820139
0.780188
0.778063
1.0592
1.03225
1.03211
1.00804
0.636554
0.638607
0.660884
0.618822
0.682181
0.662321
0.640497
0.659864
0.661427
0.833625
0.832598
0.831772
0.810317
0.704
0.723942
0.701624
0.7032
0.831726
0.831648
0.808753
0.829864
0.698961
0.740717
0.913928
1.0549
1.00344
0.647743
0.772768
0.770879
0.771347
0.814444
0.93967
0.937766
0.938203
0.981871
1.0599
1.03044
1.00278
1.03089
1.0618
1.00625
1.00471
0.944455
0.945794
0.967574
0.947182
0.943484
0.946189
0.940758
0.964743
0.987785
0.984946
0.942341
0.907367
0.885131
0.90978
0.927899
0.888092
0.863747
0.838856
0.86595
0.845813
0.841668
0.657252
0.61558
0.825302
0.782639
0.620648
0.66227
0.620555
0.832547
0.788667
0.788259
0.745727
0.704078
0.745842
0.832244
0.787854
0.788092
0.585853
0.5867
0.627656
0.607305
0.628915
0.648741
0.668659
0.608678
0.607824
0.649003
0.62855
0.670125
0.669188
0.732086
0.711015
0.732359
0.752528
0.712255
0.690416
0.733702
0.732974
0.752535
0.6907
0.712005
0.751998
0.753379
0.773749
0.794354
0.774
0.795588
0.815431
0.835337
0.775348
0.774507
0.815715
0.795256
0.836877
0.835903
0.898809
0.87777
0.899223
0.919394
0.878932
0.857118
0.900391
0.899841
0.919348
0.857471
0.878887
0.918686
0.920557
0.940589
0.961565
0.941141
0.962418
0.982771
0.942135
0.941723
0.983583
0.962947
0.667382
0.731559
0.729786
0.750654
0.729468
0.689886
0.708943
0.750301
0.773225
0.771453
0.771133
0.814884
0.79227
0.834055
0.982993
0.959808
0.981436
0.93805
0.940229
0.93856
0.938172
0.898236
0.896499
0.917424
0.896152
0.856557
0.875637
0.91711
0.982862
0.959707
0.940048
0.938423
0.938004
0.592389
0.593679
0.590707
0.588565
0.616275
0.615616
0.635626
0.654944
0.677035
0.613247
0.611958
0.632599
0.635076
0.653648
0.671916
0.674111
0.741329
0.740666
0.759064
0.719056
0.69672
0.738432
0.760526
0.737272
0.716306
0.757511
0.718689
0.695626
0.755243
0.820759
0.801911
0.783111
0.782369
0.822366
0.802851
0.799606
0.780174
0.778732
0.598817
0.598806
0.618158
0.61972
0.618177
0.640345
0.659972
0.682313
0.831069
0.809687
0.832026
0.78684
0.788
0.787207
0.787699
0.743507
0.745039
0.765874
0.74393
0.72418
0.701933
0.76623
0.830618
0.809335
0.785865
0.78739
0.786497
0.710731
0.723183
0.877417
1.02725
0.638701
0.793918
0.83385
0.981851
0.788386
0.938728
0.583408
0.708333
0.687501
0.750235
0.875057
0.854192
0.91759
1.02532
1.02506
0.645834
0.81251
0.980131
1.02453
0.6875
0.812503
0.791668
0.729169
0.854182
0.98056
0.981244
0.895915
1.02505
0.770838
0.937785
1.02487
0.729167
0.729167
0.6875
0.812503
0.770834
0.770834
0.895914
0.895933
0.854183
0.980867
0.937983
0.93788
0.938152
0.938059
0.981039
0.854892
0.69357
0.860302
0.703316
0.879883
0.813174
0.651533
0.629156
0.818223
0.712612
0.796022
0.661044
0.729825
0.729479
0.896618
0.854878
0.896282
0.735066
0.692151
0.733661
0.73481
0.694591
0.736176
0.693238
0.902945
0.90214
0.85914
0.861624
0.901173
0.903998
0.860573
0.745369
0.703264
0.745261
0.771229
0.812976
0.771078
0.606382
0.650117
0.608051
0.608951
0.648453
0.605933
0.650834
0.773049
0.816879
0.815185
0.77477
0.817781
0.775718
0.772605
0.618012
0.660402
0.617465
0.812504
0.854195
0.833344
0.834019
0.670212
0.837152
0.662255
0.704123
0.683185
0.682302
0.670892
0.837794
0.586864
0.753618
0.587411
0.754113
0.839128
0.588538
0.755298
0.729167
0.770834
0.750555
0.75
0.895991
0.833341
0.620063
0.59782
0.59796
0.746045
0.683042
0.901703
0.881512
0.838224
0.597744
0.671993
0.902641
0.88246
0.75
0.670941
0.837704
0.586808
0.753493
0.629058
0.712693
0.795806
0.879913
0.796975
0.750174
0.587561
0.630103
0.754238
0.713918
0.596707
0.708333
0.898281
0.895966
0.835633
0.791668
0.875051
0.671316
0.745929
0.744312
0.635747
0.724969
0.680882
0.708746
0.898133
0.877275
0.71388
0.714994
0.880896
0.744208
0.723059
0.629342
0.79603
0.791962
0.628973
0.795701
0.638311
0.731403
0.71072
0.708953
0.856559
0.877404
0.875713
0.69351
0.734937
0.713805
0.716982
0.881197
0.883952
0.860462
0.702022
0.724284
0.723133
0.771127
0.814771
0.793911
0.792169
0.607707
0.650617
0.629461
0.630799
0.774391
0.817354
0.796236
0.797484
0.617153
0.659633
0.638587
0.638542
0.709008
0.708333
0.792225
0.791668
0.875725
0.875063
0.834028
0.85419
0.812504
0.835726
0.856568
0.814883
0.670515
0.837238
0.640628
0.639934
0.725013
0.724321
0.682165
0.704087
0.661599
0.680971
0.70208
0.659855
0.586034
0.752702
0.671536
0.692399
0.650446
0.859564
0.83849
0.817335
0.587822
0.608642
0.754529
0.734012
0.775413
0.752239
0.731547
0.771184
0.75048
0.729167
0.770834
0.5963
0.613641
0.596659
0.617617
0.709023
0.834041
0.875741
0.85489
0.856565
0.670049
0.715258
0.692586
0.694994
0.836745
0.882078
0.859425
0.861818
0.711904
0.879016
0.68227
0.704108
0.724312
0.703283
0.702062
0.837925
0.902573
0.858858
0.90089
0.860345
0.792236
0.813115
0.814877
0.630555
0.650379
0.651843
0.587506
0.670884
0.628537
0.649965
0.608174
0.609254
0.651022
0.79723
0.817097
0.818546
0.754277
0.69182
0.733428
0.734634
0.692992
0.795368
0.816775
0.774891
0.817986
0.776065
0.662126
0.639532
0.660635
0.659784
0.729392
0.731538
0.729731
0.750563
0.708779
0.75025
0.896172
0.89826
0.896525
0.856549
0.875642
0.833994
0.585619
0.587339
0.58839
0.586002
0.734023
0.736491
0.752288
0.713119
0.692776
0.671046
0.734285
0.754034
0.735037
0.714316
0.755103
0.716523
0.693518
0.669741
0.752673
0.671948
0.902114
0.903058
0.881959
0.90139
0.903856
0.880296
0.859905
0.837897
0.883815
0.860662
0.83655
0.839045
0.597293
0.597263
0.744128
0.745314
0.744264
0.745984
0.724256
0.701993
0.682105
0.704072
0.745889
0.770962
0.771178
0.771176
0.812938
0.792022
0.6075
0.606459
0.629113
0.650483
0.608435
0.607813
0.629866
0.627475
0.650024
0.774188
0.773124
0.795852
0.817319
0.81681
0.794175
0.775167
0.796669
0.774504
0.617325
0.616763
0.617422
0.618574
0.638354
0.659593
0.660879
0.617378
0.703316
0.854868
0.661187
0.813158
0.729813
0.745404
0.896617
0.618741
0.771228
0.854193
0.812504
0.729167
0.729167
0.854187
0.895953
0.89598
0.770834
0.770834
0.812503
0.586865
0.753867
0.920412
0.58885
0.756136
0.926167
0.587522
0.75454
0.920992
0.625189
0.708545
0.791938
0.875456
0.959563
1.05126
0.96567
0.891694
0.889196
0.632049
0.632878
0.715559
0.799474
0.716496
0.800568
0.88362
0.884513
0.730394
0.687524
0.68872
0.729194
0.897131
0.854244
0.855419
0.895988
1.02532
1.02698
1.03113
0.634755
0.634301
0.71872
0.803471
0.718133
0.802613
0.698612
0.740413
0.913496
0.869737
0.910153
0.645855
0.647038
0.772068
0.812547
0.81374
0.770867
0.938928
0.980147
0.98103
0.937869
0.989821
0.869061
0.910714
0.948298
0.989392
0.656907
0.615211
0.825191
0.782392
0.666697
0.625034
0.708404
0.666802
0.833519
0.791831
0.875417
0.833671
1.00304
0.959609
1.00327
0.672239
0.840458
0.672624
0.676728
0.633256
0.717106
0.67508
0.841065
0.847392
0.889061
0.844648
0.801593
0.671775
0.675565
0.632148
0.715861
0.673295
0.674514
0.839494
0.844737
0.843576
0.799934
0.883604
0.841624
0.6699
0.670104
0.837377
0.837468
0.750979
0.917836
0.933208
0.589752
0.590029
0.756809
0.75719
0.923813
0.924118
0.666672
0.666681
0.64584
0.68751
0.833383
0.833403
0.812551
0.854266
1.00201
1.00201
0.980377
1.02537
0.583446
0.583348
0.75019
0.75007
0.917414
0.917239
0.676234
0.867204
0.845785
0.588793
0.755837
0.67317
0.630225
0.713754
0.922838
0.841478
0.797495
0.881066
0.931144
0.933824
0.846556
0.888622
0.801094
0.591994
0.589787
0.5909
0.759483
0.75699
0.758368
0.673519
0.630717
0.714291
0.926379
0.928349
0.923753
0.84188
0.798091
0.881686
0.66763
0.834344
1.00282
0.592839
0.759841
0.98823
1.02941
1.00885
1.01052
0.9281
0.927945
0.930054
0.908314
0.750027
0.750014
0.729183
0.770861
0.916968
0.916932
0.896049
0.938001
0.708745
0.875472
1.05419
0.592834
0.76065
0.718754
0.910715
0.889049
0.625398
0.792091
0.959166
0.969527
0.635296
0.802901
0.591347
0.592981
0.759086
0.761078
0.676503
0.633012
0.716806
0.625975
0.709319
0.792665
0.750397
0.729464
0.771133
0.876056
0.959838
0.917211
0.89627
0.938158
1.05445
0.967741
0.947793
1.05018
1.05086
0.593616
0.613191
0.760632
0.738438
0.780409
0.92872
0.907243
0.66705
0.687787
0.646111
0.625012
0.625003
0.708353
0.708342
0.833753
0.854521
0.81282
0.791708
0.791692
0.875137
0.875109
1.00194
1.02573
0.980432
0.959048
0.959018
1.05165
1.05123
0.634539
0.717988
0.676995
0.696649
0.654915
0.930986
0.930864
0.80203
0.890981
0.887783
0.887648
0.84693
0.866396
0.823051
0.708508
0.875504
0.670268
0.586497
0.630526
0.838052
0.753424
0.714022
0.797858
0.919927
0.881538
0.672406
0.588288
0.633172
0.632659
0.840654
0.755445
0.71704
0.801439
0.7164
0.800614
0.921877
0.889067
0.886725
0.670963
0.586672
0.631476
0.838504
0.753611
0.715087
0.799024
0.920085
0.882675
0.583516
0.666863
0.64585
0.646799
0.625142
0.750229
0.73015
0.687519
0.688477
0.729191
0.833667
0.771816
0.812553
0.813501
0.770867
0.79193
0.917352
0.896924
0.854262
0.855185
0.89603
1.00318
0.938789
0.980291
0.98103
0.937954
0.959655
1.02538
1.02686
0.947066
0.988229
0.963987
0.933722
0.891195
0.846979
0.930651
0.885781
0.84586
0.590342
0.631448
0.673756
0.655385
0.613682
0.591127
0.631782
0.674643
0.633783
0.757402
0.714978
0.697077
0.738875
0.798822
0.842349
0.823522
0.780848
0.758418
0.715347
0.717458
0.79924
0.843388
0.801758
0.924608
0.882691
0.867116
0.908017
0.925332
0.883049
0.709582
0.729575
0.751199
0.687903
0.708359
0.666689
0.667851
0.750029
0.876298
0.896333
0.917981
0.854611
0.875107
0.833392
0.834548
0.916903
1.05635
1.02569
1.0525
1.00183
1.0027
1.05152
1.01052
1.03079
1.0296
0.59295
0.634606
0.676678
0.592553
0.676201
0.76092
0.718494
0.803121
0.760206
0.594357
0.739654
0.719534
0.69787
0.677748
0.761347
0.909018
0.912268
0.912003
0.931782
0.890356
0.868526
0.87005
0.847748
0.910809
0.929602
0.626232
0.646218
0.625022
0.792931
0.771247
0.812922
0.791706
0.959936
0.93815
0.980305
0.958926
0.989759
0.988392
0.89064
0.866833
0.930036
0.908118
0.969052
0.949536
0.614447
0.636073
0.656139
0.781687
0.803605
0.824482
0.589061
0.756452
0.926453
0.891777
0.634788
0.8037
0.71881
0.625019
0.708377
0.791776
0.875317
0.959484
1.0502
0.687506
0.729177
0.854237
0.895998
1.02527
0.645837
0.770851
0.812533
0.93792
0.980282
0.630729
0.714266
0.798033
0.881636
0.671511
0.671716
0.629299
0.712736
0.839374
0.839617
0.796453
0.879789
0.588067
0.588253
0.755072
0.755241
0.921854
0.922082
0.589002
0.672452
0.629747
0.629964
0.75607
0.713259
0.713464
0.840482
0.796971
0.797177
0.922948
0.880508
0.880685
0.683421
0.68354
0.683573
0.683574
0.683404
0.683534
0.68357
0.683571
0.704287
0.704388
0.704416
0.704417
0.704299
0.704398
0.704425
0.704426
0.860418
0.860142
0.85981
0.859459
0.857595
0.857438
0.857223
0.856989
0.884286
0.882437
0.880514
0.878554
0.884197
0.88236
0.880448
0.8785
0.683289
0.68349
0.683563
0.683567
0.683006
0.683398
0.683555
0.683567
0.703976
0.704292
0.704394
0.7044
0.704159
0.704339
0.704399
0.704402
0.854058
0.853817
0.850267
0.850115
0.855278
0.855025
0.662481
0.662668
0.66273
0.662733
0.662294
0.662621
0.662727
0.662733
0.831001
0.831087
0.831092
0.82923
0.82939
0.8294
0.662523
0.662687
0.662733
0.662735
0.662449
0.662666
0.662731
0.662734
0.683381
0.683523
0.683565
0.683567
0.662548
0.66269
0.662731
0.662733
0.834724
0.834807
0.834828
0.834829
0.833774
0.833856
0.833877
0.833878
0.704227
0.704362
0.704401
0.704403
0.831921
0.831974
0.831977
0.856182
0.856045
0.855847
0.855629
0.884301
0.882499
0.880623
0.878714
0.884395
0.882545
0.88062
0.878661
0.856332
0.856191
0.855989
0.855766
0.599951
0.600155
0.600229
0.600233
0.599667
0.600063
0.600221
0.600233
0.766733
0.766928
0.766998
0.767002
0.745849
0.746034
0.746095
0.746098
0.745631
0.745956
0.746061
0.746067
0.76635
0.766734
0.766889
0.7669
0.856047
0.855829
0.855557
0.88329
0.881061
0.878768
0.620628
0.620956
0.621061
0.621067
0.620814
0.621002
0.621064
0.621067
0.787313
0.78763
0.787727
0.787733
0.787797
0.787967
0.788022
0.788025
0.901068
0.897834
0.894512
0.891182
0.901535
0.898216
0.894808
0.891391
0.856693
0.856546
0.85634
0.856113
0.884361
0.882505
0.880573
0.878607
0.901565
0.898249
0.894844
0.891427
0.725014
0.725186
0.725239
0.725242
0.724876
0.725151
0.725229
0.725233
0.873963
0.873731
0.870967
0.871117
0.89253
0.892424
0.855771
0.855428
0.881223
0.878821
0.893074
0.891299
0.895958
0.891472
0.641669
0.641844
0.641897
0.6419
0.64154
0.641818
0.641896
0.6419
0.809113
0.809266
0.809301
0.809303
0.808266
0.808511
0.808564
0.808567
1.05729
1.05391
1.05026
1.04652
1.06337
1.05809
1.05272
1.04716
1.06365
1.05827
1.05281
1.04726
1.05701
1.05364
1.05009
1.04652
1.0661
1.06019
1.05421
1.04817
1.06367
1.0583
1.05284
1.04729
1.06606
1.06015
1.05415
1.04811
1.05686
1.05352
1.05004
1.04651
1.06589
1.06
1.05401
1.04799
0.710886
0.711201
0.711419
0.711439
0.689857
0.690289
0.690581
0.690606
0.689714
0.689944
0.689999
0.69
0.71069
0.710822
0.710834
0.710833
0.731385
0.731612
0.731666
0.731667
0.731528
0.731958
0.732248
0.732273
0.877553
0.877868
0.878085
0.878105
0.856527
0.856957
0.857247
0.857272
0.856386
0.856612
0.856666
0.856667
0.877357
0.877489
0.877501
0.8775
0.898049
0.898278
0.898332
0.898333
0.898188
0.898621
0.898912
0.898937
1.05901
1.05502
1.05101
1.04693
1.02171
1.02172
1.02165
1.0213
1.0224
1.02232
1.02207
1.02176
1.05695
1.05359
1.05004
1.0465
1.05868
1.05337
1.06234
1.0574
1.05233
1.03231
1.03179
0.600043
0.600188
0.600231
0.600233
0.599864
0.600142
0.600229
0.600233
0.600042
0.60019
0.600231
0.600233
0.62088
0.621023
0.621065
0.621067
0.683364
0.683521
0.683566
0.683568
0.662177
0.66257
0.662726
0.662734
0.662522
0.662684
0.662731
0.662733
0.683406
0.683532
0.683567
0.683568
0.620834
0.621013
0.621065
0.621067
0.620367
0.620864
0.621057
0.621067
0.832701
0.832787
0.832809
0.83281
0.832509