TITLE = "Example Grid File"
FILETYPE = GRID
VARIABLES = "X" "Y" "Z"
Zone
ZoneType=FEPOLYHEDRON
NODES=6034
FACES=14969
ELEMENTS=4522
TotalNumFaceNodes=60667
NumConnectedBoundaryFaces=0
TotalNumBoundaryConnections=0
1.17995
1.34472
1.51067
1.67709
1.84368
2.01036
2.17772
2.34451
2.5112
2.67764
2.84335
3.00846
3.17439
3.3409
3.50755
3.67421
3.84088
4.00754
4.17421
4.34088
4.50754
4.67421
4.84088
5
1.17746
1.34205
1.50797
1.67439
1.84177
2.0075
2.17486
2.34196
2.50869
2.67529
2.84158
3.00773
3.17419
3.34084
3.5075
3.67417
3.84083
4.0075
4.17416
4.34083
4.50749
4.67416
4.84083
5
1.0031
1.17619
1.34163
1.50792
1.6744
1.84097
2.00738
2.17424
2.341
2.50766
2.67432
2.84094
3.00752
3.17417
3.34083
3.5075
3.67416
3.84082
4.00749
4.17415
4.34082
4.50749
4.67415
4.84082
5
0.500078
0.666854
0.833815
1.00265
1.17528
1.34179
1.50805
1.67447
1.84102
2.00762
2.17428
2.34089
2.50754
2.67419
2.84085
3.00751
3.17417
3.34083
3.5075
3.67416
3.84083
4.00749
4.17416
4.34082
4.50749
4.67415
4.84082
5
0.500143
0.666919
0.833912
1.00208
1.17304
1.34081
1.5076
1.67425
1.84089
2.00754
2.1742
2.34085
2.50751
2.67418
2.84084
3.00751
3.17417
3.34084
3.5075
3.67417
3.84083
4.0075
4.17417
4.34083
4.5075
4.67416
4.84084
5
0.500177
0.666923
0.833792
1.00135
1.1709
1.33912
1.50646
1.67347
1.84034
2.00713
2.17388
2.34061
2.50732
2.67402
2.84071
3.00739
3.17408
3.34075
3.50743
3.67411
3.84078
4.00745
4.17412
4.34079
4.50746
4.67413
4.84081
5
0.500189
0.666918
0.833744
1.00102
1.16975
1.33812
1.50572
1.67292
1.83993
2.00682
2.17364
2.34042
2.50717
2.67391
2.84062
3.00733
3.17403
3.34072
3.5074
3.67409
3.84077
4.00745
4.17412
4.3408
4.50747
4.67415
4.84083
5
1.18627
1.34835
1.51366
1.67979
1.84626
2.0128
2.1793
2.34562
2.51213
2.67861
2.84301
3.00875
3.17469
3.34113
3.50769
3.67433
3.84099
4.00766
4.17431
4.34098
4.50763
4.6743
4.84095
5
1.1853
1.34713
1.51243
1.67859
1.84501
2.00818
2.17529
2.34217
2.50878
2.67532
2.84155
3.00792
3.1744
3.34103
3.50768
3.67433
3.841
4.00766
4.17432
4.34098
4.50764
4.6743
4.84096
5
1.00609
1.1783
1.34279
1.50859
1.67486
1.84134
2.00794
2.17455
2.34125
2.50787
2.67451
2.8411
3.00773
3.17436
3.34102
3.50768
3.67434
3.841
4.00765
4.17432
4.34098
4.50764
4.6743
4.84096
5
0.501334
0.668113
0.835
1.00454
1.1762
1.34233
1.50842
1.67479
1.84135
2.00793
2.17455
2.34115
2.50778
2.67442
2.84106
3.00771
3.17436
3.34102
3.50768
3.67434
3.841
4.00765
4.17432
4.34098
4.50764
4.6743
4.84096
5
0.500792
0.667564
0.83463
1.00313
1.17328
1.34089
1.50769
1.67435
1.84102
2.00771
2.17438
2.34104
2.5077
2.67436
2.84103
3.00768
3.17434
3.34101
3.50766
3.67433
3.84099
4.00765
4.17432
4.34097
4.50764
4.67431
4.84096
5
0.500453
0.6672
0.834101
1.0017
1.17071
1.33901
1.50644
1.67352
1.84043
2.00726
2.17404
2.34077
2.50747
2.67416
2.84086
3.00754
3.17422
3.34089
3.50757
3.67424
3.84091
4.00758
4.17426
4.34093
4.50759
4.67426
4.84093
5
0.500187
0.666905
0.833636
1.00035
1.16916
1.33777
1.50549
1.67278
1.83987
2.00681
2.17365
2.34045
2.50721
2.67395
2.84067
3.00737
3.17407
3.34077
3.50746
3.67414
3.84082
4.0075
4.17418
4.34086
4.50753
4.6742
4.84087
5
1.02113
1.18522
1.3484
1.51318
1.67899
1.84519
2.01158
2.17827
2.34507
2.51165
2.67831
2.84485
3.01123
3.17575
3.34189
3.50804
3.67453
3.84116
4.00782
4.17447
4.34113
4.50778
4.67444
4.84109
5
1.00976
1.17835
1.34207
1.50732
1.67335
1.83966
2.00029
2.17271
2.34247
2.50878
2.67543
2.84198
3.0085
3.17479
3.34129
3.50781
3.67443
3.84109
4.00775
4.1744
4.34105
4.50771
4.67436
4.84102
5
1.00518
1.16977
1.335
1.50094
1.66722
1.83369
2.0003
2.17453
2.34133
2.50792
2.67462
2.84127
3.00791
3.1745
3.34113
3.50778
3.67442
3.84108
4.00774
4.17439
4.34104
4.5077
4.67435
4.84101
5
0.502415
0.669202
0.836833
1.00246
1.16853
1.33458
1.5008
1.66718
1.83371
2.00028
2.17444
2.34118
2.50783
2.67453
2.8412
3.00783
3.17447
3.34112
3.50777
3.67442
3.84109
4.00773
4.17439
4.34105
4.5077
4.67436
4.84101
5
0.501268
0.66811
0.835344
1.00135
1.1678
1.33422
1.50064
1.66712
1.83368
2.00028
2.17428
2.34101
2.5077
2.67443
2.84111
3.00776
3.17441
3.34108
3.50774
3.67439
3.84105
4.0077
4.17437
4.34103
4.50768
4.67435
4.841
5
0.500569
0.667354
0.834392
1.00071
1.16732
1.3339
1.50044
1.667
1.83361
2.00707
2.17396
2.34071
2.50744
2.67419
2.8409
3.00759
3.17427
3.34095
3.50761
3.67429
3.84095
4.00763
4.1743
4.34096
4.50763
4.6743
4.84096
5
0.500186
0.666954
0.833866
1.00031
1.16697
1.3336
1.50021
1.66682
1.83964
2.00669
2.17357
2.34038
2.5072
2.67397
2.84069
3.00741
3.17411
3.34081
3.5075
3.67418
3.84086
4.00754
4.17422
4.3409
4.50757
4.67424
4.84092
5
1.01489
1.17986
1.34746
1.5134
1.6793
1.8454
2.01179
2.17827
2.34478
2.51138
2.67814
2.84486
3.0114
3.17784
3.34421
3.50885
3.67513
3.84172
4.00837
4.17502
4.34167
4.50831
4.67497
4.84162
5
1.00612
1.17005
1.3418
1.50749
1.67364
1.83994
2.00635
2.17279
2.33361
2.50025
2.67533
2.84206
3.0087
3.17531
3.34185
3.50815
3.67467
3.84131
4.00796
4.17461
4.34127
4.50791
4.67456
4.84121
5
0.504168
0.671014
0.838708
1.00387
1.16919
1.33492
1.501
1.66733
1.83378
2.00037
2.16698
2.33361
2.50024
2.67448
2.84121
3.00788
3.1746
3.34126
3.50785
3.67448
3.84112
4.00778
4.17444
4.34108
4.50773
4.67439
4.84103
5
0.502321
0.669081
0.836527
1.00223
1.16835
1.33453
1.50082
1.66725
1.83375
2.00033
2.16697
2.33359
2.50022
2.67438
2.84111
3.0078
3.1745
3.34117
3.50781
3.67446
3.84111
4.00776
4.17441
4.34107
4.50772
4.67437
4.84102
5
0.501294
0.668139
0.835429
1.00128
1.16775
1.33421
1.50065
1.66714
1.83371
2.0003
2.16694
2.33356
2.50019
2.67425
2.84101
3.00774
3.17443
3.3411
3.50774
3.67441
3.84107
4.00772
4.17438
4.34104
4.50769
4.67436
4.84101
5
0.500577
0.667387
0.834547
1.00068
1.16727
1.33387
1.50043
1.667
1.83361
2.00022
2.16684
2.33349
2.50013
2.67401
2.84081
3.00757
3.17427
3.34096
3.50763
3.67429
3.84097
4.00763
4.1743
4.34097
4.50763
4.6743
4.84096
5
0.500182
0.666983
0.834009
1.00027
1.16692
1.33356
1.50018
1.6668
1.83343
2.00007
2.16671
2.33336
2.50691
2.67381
2.84059
3.00738
3.1741
3.34081
3.5075
3.67418
3.84086
4.00754
4.17422
4.3409
4.50757
4.67424
4.84092
5
0.503769
0.670664
0.838563
1.00709
1.17446
1.34372
1.51152
1.67885
1.84535
2.01188
2.1784
2.34479
2.51126
2.6777
2.84422
3.01067
3.17697
3.34343
3.51001
3.67663
3.84326
4.00992
4.17656
4.34321
4.50986
4.67651
4.84317
5
0.503335
0.67016
0.837506
1.003
1.16866
1.34
1.50701
1.67348
1.83987
2.00632
2.1728
2.33361
2.50024
2.66687
2.83352
3.00018
3.17555
3.34229
3.50887
3.6755
3.84215
4.0088
4.17544
4.34209
4.50874
4.6754
4.84205
5
0.502465
0.669192
0.836394
1.00223
1.16832
1.3345
1.50084
1.66724
1.83376
2.00034
2.16698
2.33362
2.50023
2.66687
2.83352
3.00017
3.17455
3.34137
3.50802
3.67467
3.84132
4.00797
4.17462
4.34127
4.50793
4.67458
4.84123
5
0.501643
0.668366
0.835582
1.00156
1.16791
1.33428
1.50072
1.66718
1.83373
2.00032
2.16697
2.33359
2.50022
2.66686
2.83352
3.00016
3.17431
3.34113
3.5078
3.67446
3.84112
4.00777
4.17442
4.34108
4.50773
4.67439
4.84103
5
0.501056
0.667856
0.835036
1.00103
1.16754
1.33408
1.50057
1.6671
1.83369
2.00032
2.16693
2.33356
2.50019
2.66685
2.83349
3.0074
3.17424
3.34102
3.5077
3.67437
3.84104
4.00769
4.17435
4.34101
4.50767
4.67434
4.84099
5
0.500543
0.667316
0.834364
1.0006
1.1672
1.33381
1.50039
1.66698
1.83361
2.00021
2.16684
2.3335
2.50013
2.66677
2.83343
3.00729
3.1741
3.34088
3.50758
3.67427
3.84093
4.00761
4.17427
4.34095
4.50761
4.67428
4.84094
5
0.500173
0.666916
0.833795
1.00114
1.16688
1.33352
1.50015
1.66678
1.83342
2.00006
2.16671
2.33336
2.50002
2.66668
2.83334
3.0071
3.17394
3.34073
3.50746
3.67415
3.84083
4.00752
4.1742
4.34087
4.50755
4.67423
4.8409
5
0.501351
0.668228
0.835415
1.00332
1.17123
1.33992
1.50837
1.67619
1.84339
2.01073
2.17764
2.34431
2.51072
2.67677
2.84313
3.0096
3.17603
3.34263
3.5093
3.67595
3.8426
4.00925
4.1759
4.34255
4.50921
4.67586
4.84255
5
0.501264
0.668083
0.835001
1.0012
1.16758
1.33403
1.50506
1.6723
1.83914
2.00593
2.1726
2.33918
2.50576
2.67232
2.83893
3.00559
3.17234
3.33912
3.5058
3.67248
3.83913
4.00579
4.17244
4.33911
4.50576
4.67241
4.83907
5
0.50104
0.667838
0.834797
1.00101
1.16752
1.33397
1.50047
1.66704
1.83361
2.00024
2.16688
2.33352
2.50015
2.6668
2.83345
3.0001
3.16675
3.34157
3.50835
3.67511
3.84179
4.00845
4.1751
4.34177
4.50842
4.67507
4.84175
5
0.500807
0.667574
0.834606
1.00082
1.16738
1.3339
1.50045
1.66701
1.83361
2.00025
2.16686
2.33351
2.50015
2.66679
2.83345
3.00009
3.16675
3.34085
3.50764
3.6744
3.84108
4.00774
4.17441
4.34107
4.50774
4.67439
4.84106
5
0.500621
0.667373
0.834378
1.00066
1.16726
1.33381
1.50041
1.66698
1.83362
2.00023
2.16685
2.33349
2.50014
2.66679
2.83344
3.00009
3.16675
3.34069
3.50748
3.67426
3.84094
4.00761
4.17429
4.34095
4.50762
4.67428
4.84095
5
0.500437
0.667156
0.83404
1.00048
1.16712
1.33373
1.50032
1.66694
1.83356
2.00018
2.16683
2.33347
2.50011
2.66676
2.83341
3.00006
3.16672
3.34058
3.5074
3.67417
3.84086
4.00754
4.17422
4.34089
4.50757
4.67424
4.84091
5
0.500168
0.666872
0.83362
1.00056
1.16685
1.3335
1.50013
1.66677
1.83341
2.00005
2.1667
2.33336
2.50002
2.66668
2.83334
3
3.16667
3.34046
3.50732
3.67407
3.84077
4.00746
4.17415
4.34083
4.50751
4.67419
4.84086
5
0.500288
0.667011
0.833722
1.00159
1.16955
1.33773
1.50635
1.67461
1.84204
2.00928
2.17622
2.34297
2.50958
2.67593
2.84249
3.00915
3.17577
3.34244
3.50913
3.67587
3.84255
4.00918
4.17584
4.3425
4.50916
4.67582
4.84253
5
0.500265
0.666982
0.833689
1.00032
1.16692
1.33351
1.50012
1.67135
1.83844
2.0053
2.17205
2.33876
2.50544
2.67209
2.83876
3.00544
3.17213
3.33883
3.50555
3.67234
3.83904
4.00571
4.17237
4.33904
4.5057
4.67237
4.83903
5
0.500238
0.667002
0.83388
1.00029
1.1669
1.33351
1.50012
1.66675
1.83339
2.00004
2.16669
2.33335
2.50001
2.66667
2.83334
3
3.16667
3.33333
3.5
3.67504
3.84182
4.00851
4.17518
4.34185
4.50852
4.67519
4.84187
5
0.500211
0.66699
0.833943
1.00025
1.16688
1.33351
1.50013
1.66676
1.83339
2.00004
2.16669
2.33335
2.50001
2.66667
2.83334
3
3.16667
3.33333
3.5
3.6742
3.84099
4.00768
4.17435
4.34103
4.5077
4.67437
4.84105
5
0.50019
0.666953
0.833873
1.00022
1.16687
1.3335
1.50013
1.66676
1.8334
2.00005
2.1667
2.33335
2.50001
2.66668
2.83334
3
3.16667
3.33333
3.5
3.67404
3.84082
4.00752
4.1742
4.34088
4.50755
4.67423
4.8409
5
0.500174
0.666892
0.83368
1.0002
1.16685
1.33349
1.50013
1.66676
1.8334
2.00005
2.1667
2.33336
2.50002
2.66668
2.83334
3
3.16667
3.33334
3.5
3.67399
3.84076
4.00746
4.17414
4.34083
4.50751
4.67419
4.84086
5
0.500165
0.666843
0.833519
1.00019
1.16684
1.33349
1.50013
1.66676
1.83341
2.00005
2.1667
2.33336
2.50002
2.66668
2.83334
3
3.16667
3.33334
3.50708
3.67397
3.84071
4.00741
4.1741
4.34078
4.50747
4.67415
4.84083
5
1.10443
1.0991
1.10741
1.09024
0.936446
0.925556
1.09814
1.17693
1.1828
1.09561
1.1769
1.18331
1.09286
1.00431
1.17838
1.11077
1.02185
1.18645
1.18644
1.1102
1.00704
1.18001
1.17926
1.09609
1.00506
1.16981
0.944455
1.1014
1.02066
1.01875
1.18518
0.931637
1.0933
1.0079
1.00814
1.17057
0.922918
1.08739
1.00465
0.93111
1.01456
0.924494
1.00505
0.587603
0.754499
0.921177
1.18293
1.10588
1.11063
1.17954
1.09555
1.10097
1.02174
0.943796
1.18634
1.09997
1.10095
1.00894
0.922592
0.928157
1.17091
1.0876
1.0889
1.01839
0.928773
0.930598
1.00656
0.922374
0.922881
0.937112
1.10332
1.10755
1.09505
1.09444
1.06049
1.05746
1.0762
1.05601
0.901419
1.06005
1.06502
1.07479
0.971403
0.898399
1.05265
1.05063
1.07818
1.07503
0.904192
0.890671
1.01019
0.970751
1.00916
1.07197
1.10481
1.10418
1.09785
1.10187
1.05614
1.10105
1.09593
1.11081
1.06235
1.10644
1.10744
0.967958
0.927487
1.09095
1.09157
1.04978
0.94186
0.894857
0.93359
0.936932
0.927155
0.927382
1.10136
1.09558
1.05067
1.0693
1.09903
1.09511
1.09532
1.05083
1.07209
1.11071
1.11133
1.07713
1.02196
1.06316
1.10902
1.11069
1.10444
1.10307
1.05883
1.0189
1.05004
1.01211
0.944145
0.942357
0.904427
0.895481
0.940773
0.931545
0.931463
0.889084
1.00846
0.967875
1.09821
1.06001
1.07172
1.06088
1.09789
1.05266
1.06217
0.904771
0.971321
0.900366
1.0772
1.11093
1.07617
1.06253
1.06545
1.06603
1.09364
1.05046
1.05138
0.942359
0.901004
0.895293
0.893699
0.929892
1.09811
1.07203
1.07471
1.0769
1.10427
1.05847
1.10979
1.06041
0.932132
0.968023
1.01009
0.970016
0.938446
0.892729
0.901598
1.06507
1.07617
1.05109
1.05147
1.05057
1.26453
1.2612
1.26633
1.25263
1.09869
1.08805
1.1376
1.13753
1.0749
1.07493
1.13745
1.14202
1.14808
1.14691
1.06145
1.05893
1.13187
1.05005
0.968774
1.08393
1.08352
1.0842
0.981
1.08848
1.09419
1.09394
1.0887
1.08634
1.03277
1.07221
1.08414
1.08464
1.08999
1.08801
1.0882
1.08491
0.982459
0.95148
0.958465
1.26211
1.13907
1.17757
1.18079
1.34168
1.34698
1.25951
1.17699
1.13655
1.17757
1.17855
1.34171
1.34684
1.25888
1.3434
1.26651
1.14764
1.18639
1.18659
1.34843
1.34796
1.26529
1.18508
1.18646
1.14687
1.18162
1.17943
1.34309
1.34178
1.26035
1.33489
1.02244
1.06056
1.02099
1.26671
1.18258
1.34832
1.01836
1.04962
1.00911
1.26
1.17723
1.33523
1.25226
1.16954
1.09667
1.18022
1.08788
1.16965
1.08649
1.14296
1.10773
1.08632
1.10455
1.10431
1.10213
1.13913
1.14703
1.10323
1.10905
1.08492
1.10722
1.1072
1.13045
1.08947
0.966048
1.17782
1.13605
1.18287
1.14268
1.17753
1.13579
1.18317
1.14385
1.18087
1.10793
1.09329
1.11086
1.11208
1.14774
1.1865
1.18639
1.14712
1.09229
1.11005
1.10658
1.10842
1.01009
1.03084
1.00632
1.1806
1.14018
1.17095
1.18534
1.13963
1.1714
1.10117
1.10372
1.02189
0.982159
1.06009
0.913712
0.951257
0.92476
0.931624
1.0945
1.09972
1.08955
1.04831
1.00727
0.968304
1.00745
1.10528
1.1037
1.10338
1.08794
1.10759
1.11171
1.11064
1.09262
1.10423
1.09178
1.10134
1.07553
1.104
1.10287
1.08408
1.10734
1.10929
1.08558
1.08031
1.06018
1.06874
1.06091
1.05998
1.07851
1.05991
1.07833
1.09314
1.0762
1.05774
1.07623
1.06309
1.05454
1.07499
1.05188
0.904158
0.901528
0.901778
1.05997
1.06027
1.08007
1.06914
1.06378
1.06574
1.06726
1.08582
1.0759
1.07171
1.09183
1.05608
0.972659
0.971349
0.951928
0.990176
0.97064
0.900934
0.900501
0.894421
1.07739
1.07833
1.06713
1.07284
1.07535
0.904745
0.904474
0.894849
0.895576
0.990022
1.01019
0.97102
0.970572
1.06905
1.07192
1.072
1.1025
1.08654
1.10194
1.08599
1.09788
1.07993
1.09812
1.10004
1.08315
1.10322
1.11087
1.09302
1.11061
1.0577
1.06246
1.06187
1.10804
1.08348
1.10902
1.08507
1.09254
1.07158
1.09936
1.08378
1.07112
1.06784
1.08116
1.09907
1.09843
1.06932
1.06505
1.07206
1.07363
1.09274
1.11178
1.11108
1.09374
1.07714
1.0783
1.06269
1.05807
1.09118
1.1063
1.08613
1.10151
1.10491
1.08486
1.09433
1.10748
0.971317
1.04714
1.05063
1.0568
1.032
0.991997
1.01076
0.904727
0.903318
0.903818
0.947983
0.935323
0.931345
0.950685
1.34693
1.26452
1.2666
1.1784
1.17796
1.34359
1.26078
1.26098
1.17835
1.18215
1.07836
1.34788
1.25987
1.26665
1.18653
1.18555
1.06386
1.33509
1.2522
1.25269
1.17148
0.904279
1.18336
1.08887
1.09658
1.06039
1.05795
1.17014
1.087
1.08725
1.04916
1.00834
1.13727
1.1429
1.10202
1.10212
1.14336
1.13816
1.10227
1.10289
1.10773
1.07492
1.08622
1.08559
1.09303
1.09265
1.14773
1.10804
1.08641
1.08695
1.09219
1.08974
1.14617
1.14784
1.13671
1.14031
1.10166
1.06775
1.14057
1.14184
1.10702
1.10513
1.1479
1.14708
1.10895
1.11191
1.11172
1.10912
1.14606
1.14048
1.10887
1.10574
1.1034
1.06116
1.02219
1.08498
1.08522
1.10188
1.0503
1.01941
1.0846
1.08059
0.990014
0.971219
1.13072
1.1313
1.10341
1.09276
1.09028
1.04896
1.0323
1.07144
1.01054
0.895953
0.96983
0.979565
0.967107
0.967309
0.951172
1.06904
1.08366
1.08001
1.08405
1.08145
1.06784
1.08102
1.08135
1.0629
1.0854
1.08648
0.983691
0.912422
0.98376
0.950959
1.09307
1.05775
1.08854
1.08843
1.094
1.09334
1.07832
1.05775
1.09392
1.07276
1.08319
1.07679
1.08954
1.09053
1.04157
1.03053
1.01781
1.08058
0.904092
1.06908
1.08428
1.07998
1.08043
1.06923
1.08464
1.06627
1.08923
1.08653
1.09278
1.05735
1.0873
1.08929
1.05282
0.994696
0.923638
0.973689
0.989918
0.947741
0.951161
0.903061
1.099
1.26452
1.26641
1.14025
1.07487
1.14825
1.06168
1.08422
1.09455
1.08899
1.25909
1.25913
1.13615
1.13647
1.13631
0.583998
0.750803
0.918083
1.09306
0.586231
0.753081
0.921445
1.0862
1.14547
1.14588
1.05533
1.0478
0.981143
0.97826
0.983955
1.0447
1.04467
0.924924
0.924729
1.09231
1.03839
1.09383
1.04407
0.916826
0.923422
1.08812
1.09146
1.09121
1.08818
1.08822
1.09153
1.08876
1.09122
0.927028
0.92694
0.9185
0.925824
0.990929
0.95646
0.997816
0.96258
0.500044
0.666799
0.833765
1.00282
1.17576
0.583444
0.500402
0.750293
0.667172
0.917619
0.834116
1.09072
1.0034
1.17678
1.18481
0.501879
0.668627
0.835519
1.00518
1.00539
1.00701
1.05328
1.00628
1.17702
0.584704
0.501991
0.751517
0.668772
0.919009
0.83604
1.09199
1.0023
1.16848
0.98269
1.02001
0.50348
0.670241
0.838087
1.00344
1.16907
0.585785
0.752791
0.919341
1.08554
1.10616
1.09686
1.08872
0.97785
1.00457
1.05235
1.10954
1.02194
1.04357
1.18491
1.11064
1.01432
1.09675
1.09797
1.08758
1.00661
0.964426
1.04642
0.926531
0.944262
0.943894
0.939592
1.01964
1.01875
0.978347
0.936631
0.932152
1.01604
0.92269
0.924985
1.11066
1.10922
1.04305
1.02194
1.02101
1.02247
0.943425
0.944061
0.926038
0.942958
0.963018
0.939421
1.10618
1.05551
1.05381
1.05258
0.92302
1.05489
1.06108
1.07761
0.91934
1.05839
1.05176
1.05518
1.05147
1.05058
1.0759
1.0763
1.01562
0.97587
1.07369
1.10651
1.10607
1.05839
1.05745
0.929376
0.942439
0.922542
0.94103
1.05495
1.0508
1.05061
1.07378
1.10928
1.07709
1.07602
1.04322
1.1085
1.09254
1.11134
1.10947
1.06154
1.05664
1.05913
1.04108
1.01989
0.926348
0.943804
0.939661
0.942644
0.922927
0.923009
0.940595
0.960299
0.936347
0.912763
0.934384
1.07364
0.976868
1.07604
1.07371
1.0749
1.07598
1.08978
1.07491
1.07488
1.07492
1.08989
0.999709
0.980156
0.982478
0.983002
0.959409
1.1077
1.08974
1.10783
1.10782
1.09018
1.02124
1.00234
0.981437
0.982859
0.98536
0.962443
1.0566
1.05578
0.500628
0.667372
0.583813
0.585237
0.834285
0.750645
0.752039
1.00363
0.917944
0.919445
1.17738
1.09214
1.09316
1.05353
0.502847
0.669618
0.585378
0.586845
0.836898
0.75222
0.753874
1.00323
0.920577
0.92049
1.169
1.08545
1.08629
1.04628
1.01995
1.05496
1.07604
1.14553
1.18483
1.10609
1.1094
1.10922
1.1061
1.07581
1.18513
1.10627
1.10979
1.10701
1.1093
1.0059
1.0537
1.09834
1.05537
1.07598
0.965982
1.00757
0.924608
1.08885
1.0478
0.980788
0.97835
0.982516
0.943919
0.943729
0.974691
0.936808
0.942649
1.01722
0.956448
0.962268
1.0551
0.939678
0.939623
0.998551
0.963345
0.995671
0.976298
1.04469
1.04333
1.04456
1.04317
1.0592
0.922938
0.924844
0.923119
0.92643
0.924389
0.926265
0.913928
1.0549
1.0599
1.0618
1.07818
1.09341
1.09238
1.11041
1.04246
1.03745
1.0926
1.11165
1.04257
0.921639
0.921014
0.915542
0.91877
0.925218
1.07365
1.08974
1.08811
1.08816
1.07362
1.09129
1.08991
1.07602
1.0912
1.0737
1.08835
1.08979
1.07372
1.07602
1.09028
1.0913
1.0159
1.02179
0.926992
0.926711
0.92335
0.931578
0.938634
0.995646
0.977908
1.00165
0.98212
0.954774
0.960536
0.984626
0.961648
0.981206
1.14551
0.98427
0.924889
1.04489
1.08841
1.09169
0.927278
0.583408
0.750235
0.91759
1.09136
0.998769
0.963774
0.998737
0.963565
1.02312
0.963602
1.02275
0.963348
1.02229
1.00295
0.96261
1.02211
0.982403
1.00262
0.962689
0.983887
0.983182
0.985581
0.984054
0.982608
0.983429
0.985779
1.00273
0.983284
1.02285
1.02267
0.963461
0.963247
0.998768
0.98559
0.963651
0.962678
1.00254
0.983082
0.985545
0.962653
0.964073
0.998635
1.21936
1.4297
1.59581
1.76227
1.92885
1.21916
1.42636
1.59251
1.759
1.92551
1.26039
1.42624
1.22611
1.43011
1.59563
1.76181
1.92821
1.21188
1.41786
1.58393
1.75034
1.91694
1.25181
1.41769
1.05953
1.26628
1.43072
1.59615
1.76218
1.9285
1.04851
1.25255
1.41807
1.58416
1.75634
1.92273
0.586865
0.753867
0.920412
1.08613
1.25184
0.58885
0.756136
0.926167
1.0928
0.587522
0.75454
0.920992
1.08635
0.585958
0.752831
0.919335
1.08542
1.05126
1.13595
1.13917
1.04117
1.14537
1.03502
1.14427
0.990216
0.96567
1.12956
1.02978
1.13065
1.04756
1.12933
0.976
0.972621
0.96536
1.07796
1.07636
1.07866
1.07724
1.075
1.00232
0.995641
1.07185
1.08045
1.07647
1.07622
1.082
1.08376
0.989067
0.989392
0.949701
1.30176
1.21886
1.30116
1.22506
1.30676
1.22526
1.30682
1.30136
1.21821
1.30066
1.22235
1.30396
1.22057
1.30265
1.30702
1.22516
1.30612
1.22625
1.3073
1.22522
1.30635
1.29378
1.21125
1.29355
1.21192
1.294
1.21135
1.29372
1.14145
1.05709
1.14008
1.12975
1.0469
1.12889
1.12119
1.11773
1.12146
1.12205
1.11716
1.12047
1.12508
1.12345
1.13003
1.12992
1.12807
1.12865
1.12982
1.12507
1.08335
1.04258
1.04099
1.04239
1.08355
1.08298
1.03606
1.04018
1.04154
1.07933
1.12147
1.11235
1.03104
1.07086
1.03013
0.950774
1.00124
1.12492
1.12779
1.1277
1.1249
1.12508
1.12829
1.12582
1.12781
0.962951
0.962749
0.956166
0.961771
1.00212
1.22096
1.42761
1.30337
1.34238
1.34537
1.59385
1.50763
1.51278
1.76038
1.67406
1.67913
1.927
1.84067
1.84566
2.00748
2.01226
1.21841
1.42491
1.34166
1.30073
1.34221
1.34286
1.59114
1.50762
1.51255
1.75767
1.6743
1.67888
1.92461
1.84093
1.84537
2.00731
2.00865
1.00304
1.04965
1.00327
1.17651
1.13483
1.17676
1.21759
1.42463
1.34186
1.34163
1.30025
1.34201
1.59115
1.50802
1.50932
1.75767
1.67566
1.92427
1.84221
2.00777
1.25875
1.42493
1.34308
1.50928
1.22605
1.43085
1.34789
1.30733
1.34841
1.34803
1.59667
1.51369
1.51283
1.76301
1.67981
1.67875
1.92951
1.84627
1.84509
2.01271
2.01164
1.22497
1.4296
1.34765
1.34831
1.3061
1.34411
1.34175
1.59544
1.50861
1.50704
1.76182
1.67493
1.67313
1.92578
1.84144
1.83364
2.00794
2.00861
1.17916
1.17909
1.1374
1.16976
1.21932
1.42555
1.34258
1.34379
1.34291
1.30154
1.33479
1.59168
1.50849
1.50079
1.75808
1.66711
1.92462
1.83364
2.00789
1.25938
1.42535
1.33452
1.50071
1.02177
1.04062
1.02096
1.0017
1.18607
1.14314
1.18524
1.22611
1.18416
1.43062
1.34844
1.34819
1.30746
1.34839
1.59601
1.51311
1.51339
1.76205
1.67892
1.67919
1.92835
1.84515
1.84529
2.01156
2.0117
1.01007
0.990052
1.00946
1.01473
1.02954
1.17892
1.18419
1.13426
1.17092
1.21922
1.17785
1.42454
1.34208
1.34194
1.34743
1.30098
1.33533
1.59034
1.501
1.50755
1.75648
1.66724
1.67358
1.9228
1.83372
1.83986
2.00029
2.00632
1.0052
1.00646
0.964144
1.04627
1.00501
1.16982
1.17017
1.12856
1.21099
1.16965
1.41788
1.33479
1.33501
1.33496
1.33511
1.29361
1.58404
1.50088
1.50099
1.75044
1.66729
1.917
1.83377
2.00033
0.50248
0.669273
0.836961
1.00244
1.25155
1.16849
1.41768
1.33459
0.505463
0.672624
0.841065
1.01
1.01717
0.973212
1.01513
1.26384
1.17699
1.43053
1.34785
1.59631
1.51338
1.76235
1.67924
1.9286
1.84541
2.0118
0.504862
0.671775
0.839494
1.00435
1.0072
1.01191
0.965348
1.25879
1.16937
1.4246
1.33511
1.59052
1.50108
1.75677
1.67333
1.92317
1.83976
2.00037
0.503107
0.503286
0.6699
0.670104
0.837377
0.837468
1.00292
1.00301
1.25201
1.16875
1.16875
1.41792
1.33471
1.58413
1.75054
1.91707
0.585686
0.50201
0.752609
0.66875
0.919114
0.836063
1.0853
1.00193
1.25142
1.16816
0.587135
0.503633
0.754306
0.670478
0.923515
0.838376
1.09035
1.00708
1.17502
0.586705
0.502908
0.753726
0.669682
0.92015
0.83703
1.08582
1.00267
1.16852
0.585827
0.501999
0.752675
0.668748
0.919163
0.83596
1.08529
1.0019
1.16812
0.584994
0.751868
0.918368
1.08476
1.1234
1.10054
1.07875
1.10039
1.09779
1.12761
1.10546
1.09067
1.09109
1.07012
0.933208
0.923813
0.924118
1.07675
1.09968
1.09657
1.11872
1.21794
1.2235
1.07424
1.09694
1.09544
1.09582
1.11618
1.21798
1.22371
1.0937
1.09354
1.17891
1.13724
1.21961
1.12892
1.22621
1.22618
1.1283
1.22031
1.21935
1.17036
1.12874
1.211
1.1
1.02077
1.01993
1.02129
1.00119
1.04016
1.05855
1.18599
1.14274
1.22605
1.18449
1.08939
1.00859
1.00816
0.987759
1.04831
1.17076
1.12967
1.21158
1.17037
0.922838
1.08754
1.08813
1.08723
1.0056
0.963565
1.04579
0.931144
0.933824
1.01694
0.972618
0.926379
0.928349
0.923753
1.22358
1.12459
1.12898
1.22026
1.10171
1.09831
1.10279
1.08103
1.22611
1.12006
1.09847
1.09956
0.98823
1.02941
1.01052
1.00869
0.9281
0.927945
0.930054
0.947963
1.21167
1.08846
1.05825
1.04721
1.1229
1.1056
1.0963
1.09534
1.07389
1.09521
1.09524
1.09499
1.07347
1.05419
0.969527
1.03031
0.970499
1.00958
0.9894
1.02892
1.12384
1.12328
1.11728
1.12092
1.05445
1.10275
1.08095
1.09695
1.07526
1.12913
1.06188
1.12663
1.1045
1.1056
0.967741
0.947793
1.09237
1.07097
1.11143
1.09064
1.05018
1.05086
1.04928
0.961452
0.92872
1.12043
1.09666
1.0744
1.1161
1.11827
1.09641
1.07389
1.09642
1.07422
1.116
1.05165
1.05123
1.12901
1.1298
1.06243
1.12733
1.12908
1.12291
1.12157
1.05048
0.961882
0.930986
0.930864
0.950434
0.988177
1.0094
1.02867
0.968028
0.969013
1.11756
1.11761
1.1295
1.06209
1.11252
1.05072
0.961821
0.949187
1.11768
1.12292
1.12813
1.06009
1.03011
0.969469
0.958885
1.30568
1.26461
1.26582
1.2645
1.25991
1.26227
1.30235
1.26096
1.26182
1.25954
1.26631
1.30698
1.26543
1.26658
1.26639
1.25252
1.25281
1.2938
1.25243
1.2527
1.14023
1.09657
1.09888
1.08849
1.12906
1.08754
1.13742
1.14105
1.13874
1.13694
1.14143
1.13804
1.13828
1.13916
1.13696
1.14354
1.14139
1.14253
1.14851
1.14821
1.14835
1.14817
1.14767
1.14635
1.14477
1.06077
1.08202
1.06136
1.04175
1.06154
1.05831
1.06056
1.08063
1.05548
1.03913
1.13912
1.13222
1.13159
1.0494
1.05029
1.07002
1.0496
0.969428
1.26279
1.25977
1.1397
1.13765
1.34249
1.30034
1.34693
1.30569
1.26037
1.25909
1.25967
1.13722
1.137
1.34207
1.30038
1.34696
1.30562
1.34459
1.25932
1.25898
1.34345
1.30208
1.26658
1.26575
1.26638
1.14774
1.14858
1.14667
1.34792
1.3074
1.34793
1.34793
1.30703
1.26562
1.2665
1.26213
1.25981
1.14692
1.14769
1.14343
1.14511
1.34403
1.30195
1.33495
1.34702
1.30073
1.33517
1.26131
1.26063
1.25211
1.33499
1.29351
1.04194
1.06025
1.06092
1.04049
1.0216
1.00154
1.26672
1.26664
1.18288
1.1403
1.34813
1.3074
1.03794
1.01891
0.998664
1.05446
1.04932
1.04992
1.26001
1.2657
1.25286
1.18282
1.12963
1.17043
1.33517
1.29392
1.25224
1.25248
1.16983
1.12824
1.14093
1.14292
1.14296
1.14431
1.12639
1.14734
1.14684
1.10306
1.08186
1.10267
1.14288
1.14179
1.14427
1.14376
1.1419
1.14516
1.14168
1.12643
1.1477
1.14776
1.14846
1.14665
1.14389
1.13999
1.13161
1.10328
1.08235
1.04144
0.981649
1.06008
1.05928
1.06047
1.099
1.07393
1.0904
1.14424
1.14471
1.12635
1.14662
1.12676
1.14619
1.14694
0.974726
0.979085
1.14545
1.14546
1.14563
0.981133
0.982015
0.981312
0.980149
0.982136
1.2605
1.21878
1.22353
1.51269
1.42957
1.43088
1.3431
1.34249
1.3479
1.34794
1.67902
1.59568
1.59668
1.84555
1.76213
1.76303
2.01213
1.92756
1.92948
1.21933
1.26018
1.21846
1.22142
1.50936
1.42626
1.4257
1.34265
1.342
1.3451
1.34386
1.67574
1.59246
1.59175
1.84229
1.75892
1.75818
2.00776
1.92549
1.92462
1.05047
1.34326
1.26006
1.25981
1.21806
1.30065
1.22021
1.30251
1.50931
1.42616
1.42547
1.22615
1.26634
1.2261
1.22618
1.51276
1.42424
1.43054
1.34798
1.34708
1.34818
1.34726
1.67867
1.59003
1.59595
1.84501
1.75632
1.762
2.01167
1.91694
1.92837
1.22164
1.21934
1.25268
1.21159
1.21196
1.50084
1.41776
1.41802
1.33502
1.33488
1.33526
1.33505
1.66712
1.58392
1.58408
1.83365
1.75035
1.75045
2.0079
1.91694
1.91699
1.3347
1.2515
1.25189
1.21093
1.29342
1.21101
1.29357
1.50076
1.41759
1.41779
1.04053
1.09982
1.05924
1.05851
1.04034
1.34838
1.25974
1.26445
1.22611
1.30746
1.22506
1.30648
1.18432
1.18359
1.51333
1.42466
1.43063
1.67914
1.5905
1.59626
1.84531
1.7567
1.7623
2.01172
1.92312
1.92861
1.02929
1.04902
1.08901
1.04774
1.04783
1.33523
1.25218
1.25229
1.21184
1.29405
1.2113
1.29377
1.17066
1.17003
1.50107
1.41794
1.41803
1.67302
1.58412
1.58418
1.83952
1.7505
1.75658
2.00035
1.91704
1.92286
0.503462
0.670268
0.585855
0.586497
0.838052
0.752871
0.753424
1.00333
0.91935
0.919927
0.963981
1.16896
1.0855
1.08584
1.04605
1.12841
1.33479
1.25152
1.25169
0.505349
0.672406
0.588288
0.587019
0.840654
0.755445
0.754115
1.00978
0.921877
0.923443
0.973142
0.969927
1.17734
1.08678
1.09048
0.504112
0.670963
0.586672
0.586286
0.838504
0.753611
0.753234
1.0037
0.920085
0.919693
1.1691
1.08589
1.08556
0.502587
0.669341
0.58537
0.585368
0.836658
0.752247
0.75223
1.00242
0.918754
0.918741
1.16845
1.08505
1.08502
1.13803
1.14664
1.14715
1.00318
1.13748
1.09449
1.07711
1.07426
1.13802
1.17708
1.13545
1.14402
1.1386
1.1798
1.13815
1.14858
1.14728
1.02167
1.04183
1.06082
1.0411
1.14527
1.1861
1.14291
1.10546
1.10561
1.02996
1.01528
1.03447
1.03561
1.03851
1.05494
1.1383
1.18497
1.1414
1.1274
1.1244
1.10522
1.1024
1.0099
0.989846
0.990306
0.989887
1.00664
0.965731
0.988014
0.988229
0.94804
0.963987
1.1404
1.1295
1.1703
1.12871
1.03034
1.04974
1.0294
1.13004
1.17118
1.13017
1.11178
1.09092
1.08844
1.04728
1.02902
1.0464
1.17029
1.12911
1.12867
1.00161
0.982112
0.995045
0.975443
0.933722
0.975542
1.01731
0.930651
0.966717
1.01465
0.970129
0.924608
0.964765
1.00609
0.925332
1.07677
1.09779
1.07623
1.09641
1.05635
1.07649
1.08061
1.09887
1.07603
1.07687
1.09715
1.0525
1.09584
1.00222
0.999409
1.0728
1.05152
1.09172
1.07108
1.07057
1.08331
1.09991
1.07826
1.03079
0.931782
0.929602
1.07626
1.09665
1.09638
1.0831
1.10178
1.08
1.10332
1.08154
0.989759
0.930036
0.969052
0.949536
0.989317
0.969379
1.00899
0.988699
1.0099
0.949444
1.30116
1.30566
1.25994
1.22373
1.30573
1.30156
1.26578
1.22514
1.30679
1.30739
1.26588
1.22504
1.22617
1.30654
1.30729
1.30076
1.30336
1.2594
1.21989
1.30217
1.26299
1.22103
1.30285
1.30301
1.26152
1.21977
1.30172
1.30698
1.30702
1.26542
1.22516
1.3061
1.30067
1.26664
1.22617
1.30725
1.26564
1.21935
1.30089
1.29368
1.29392
1.25233
1.21133
1.29366
1.25288
1.21164
1.29389
1.25248
1.14134
1.14022
1.09741
1.05609
1.03953
1.13807
1.13348
1.12935
1.12937
1.08786
1.0465
1.12864
1.14098
1.12123
1.11729
1.12119
1.12334
1.11866
1.11665
1.14132
1.12322
1.1217
1.12341
1.11794
1.11697
1.14177
1.12233
1.12428
1.11938
1.11826
1.11669
1.14022
1.12221
1.12204
1.14272
1.12445
1.12346
1.12456
1.12823
1.1261
1.12945
1.12828
1.12994
1.12963
1.12908
1.14851
1.12986
1.12897
1.1289
1.14711
1.12727
1.14841
1.12956
1.12593
1.12652
1.12899
1.14421
1.12902
1.12074
1.06201
1.08191
1.08344
1.08327
1.04247
1.0622
1.08209
1.04165
1.06064
1.04078
1.02149
1.04219
1.06144
1.08196
1.08152
1.03977
1.05678
1.03061
1.0408
1.05985
1.02064
1.07816
1.07473
1.11196
1.12004
1.113
1.13191
1.07063
1.05016
1.05071
1.03092
1.07028
1.02953
0.950028
0.949946
0.95116
1.00046
1.00191
1.14425
1.12635
1.1249
1.12498
1.14423
1.12773
1.12638
1.1466
1.12772
1.14441
1.12539
1.1265
1.14509
1.14675
1.12715
1.12803
0.961747
0.962853
0.961928
0.981919
1.0014
0.9625
0.960761
0.980931
0.959876
0.955318
0.589061
0.756452
0.926453
1.05964
1.09298
1.22169
1.22615
1.26616
1.42979
1.43019
1.43081
1.59593
1.59571
1.59623
1.76238
1.76188
1.76224
1.92897
1.92833
1.92849
0.975917
1.14542
1.04125