TITLE = "Example Grid File"
FILETYPE = GRID
VARIABLES = "X" "Y" "Z"
Zone
ZoneType=FEPOLYHEDRON
NODES=21706
FACES=56734
ELEMENTS=47560273
TotalNumFaceNodes=229239
NumConnectedBoundaryFaces=0
TotalNumBoundaryConnections=0
-2
-1.83592
-1.67079
-1.50588
-1.34108
-1.17623
-1.01133
-0.844747
-0.677898
-0.511022
-0.344017
-0.176483
-0.00414196
0.166609
0.333333
0.5
0.666667
0.833344
1.00332
1.17995
1.34472
1.51067
1.67709
1.84368
2.01036
2.17772
2.34451
2.5112
2.67764
2.84335
3.00846
3.17439
3.3409
3.50755
3.67421
3.84088
4.00754
4.17421
4.34088
4.50754
4.67421
4.84088
5
-2
-1.83593
-1.67082
-1.50593
-1.34142
-1.17658
-1.01169
-0.844997
-0.678135
-0.511224
-0.344336
-0.176352
-0.00545775
0.166561
0.333333
0.5
0.666667
0.833343
1.00202
1.17746
1.34205
1.50797
1.67439
1.84177
2.0075
2.17486
2.34196
2.50869
2.67529
2.84158
3.00773
3.17419
3.34084
3.5075
3.67417
3.84083
4.0075
4.17416
4.34083
4.50749
4.67416
4.84083
5
-2
-1.83657
-1.67132
-1.50634
-1.34142
-1.1765
-1.01104
-0.844476
-0.677932
-0.509918
-0.342595
-0.175233
-0.000160728
0.166435
0.333323
0.500016
0.666725
0.833613
1.0031
1.17619
1.34163
1.50792
1.6744
1.84097
2.00738
2.17424
2.341
2.50766
2.67432
2.84094
3.00752
3.17417
3.34083
3.5075
3.67416
3.84082
4.00749
4.17415
4.34082
4.50749
4.67415
4.84082
5
-2
-1.83759
-1.67202
-1.50677
-1.34167
-1.17661
-1.0101
-0.843245
-0.676313
-0.508723
-0.342124
-0.170063
0.000159938
0.166401
0.333365
0.500078
0.666854
0.833815
1.00265
1.17528
1.34179
1.50805
1.67447
1.84102
2.00762
2.17428
2.34089
2.50754
2.67419
2.84085
3.00751
3.17417
3.34083
3.5075
3.67416
3.84083
4.00749
4.17416
4.34082
4.50749
4.67415
4.84082
5
-2
-1.83866
-1.67288
-1.50738
-1.34206
-1.17626
-1.00915
-0.841873
-0.67369
-0.506187
-0.338725
-0.166349
0.00020068
0.166353
0.333386
0.500143
0.666919
0.833912
1.00208
1.17304
1.34081
1.5076
1.67425
1.84089
2.00754
2.1742
2.34085
2.50751
2.67418
2.84084
3.00751
3.17417
3.34084
3.5075
3.67417
3.84083
4.0075
4.17417
4.34083
4.5075
4.67416
4.84084
5
-2
-1.83963
-1.6737
-1.50801
-1.34246
-1.17563
-1.00832
-0.84061
-0.671932
-0.503618
-0.334535
-0.167404
-0.000464248
0.166578
0.333448
0.500177
0.666923
0.833792
1.00135
1.1709
1.33912
1.50646
1.67347
1.84034
2.00713
2.17388
2.34061
2.50732
2.67402
2.84071
3.00739
3.17408
3.34075
3.50743
3.67411
3.84078
4.00745
4.17412
4.34079
4.50746
4.67413
4.84081
5
-2
-1.84046
-1.67442
-1.50857
-1.34241
-1.17515
-1.00763
-0.839134
-0.670708
-0.501143
-0.333754
-0.166922
-0.000181612
0.166669
0.33347
0.500189
0.666918
0.833744
1.00102
1.16975
1.33812
1.50572
1.67292
1.83993
2.00682
2.17364
2.34042
2.50717
2.67391
2.84062
3.00733
3.17403
3.34072
3.5074
3.67409
3.84077
4.00745
4.17412
4.3408
4.50747
4.67415
4.84083
5
-1.99167
-1.83165
-1.66902
-1.50503
-1.34069
-1.17617
-1.01158
-0.84529
-0.678498
-0.511665
-0.344738
-0.17734
-0.0167901
1.18509
1.34813
1.51361
1.67979
1.84622
2.01279
2.17932
2.34563
2.51213
2.6786
2.84301
3.00875
3.17468
3.34113
3.50768
3.67433
3.84098
4.00765
4.1743
4.34097
4.50763
4.6743
4.84095
5
-1.99167
-1.83163
-1.66899
-1.50499
-1.3406
-1.17601
-1.01133
-0.84503
-0.678255
-0.511434
-0.344618
-0.177215
-0.00690315
1.18461
1.34698
1.5124
1.67858
1.84498
2.00816
2.1753
2.34218
2.50877
2.67531
2.84155
3.00792
3.17439
3.34103
3.50767
3.67433
3.84099
4.00765
4.17431
4.34097
4.50764
4.6743
4.84096
5
-1.99167
-1.8323
-1.6693
-1.50508
-1.34059
-1.17592
-1.01073
-0.844274
-0.67794
-0.511045
-0.343787
-0.174862
-0.00415848
0.169604
0.336575
0.503274
0.66997
0.836854
1.00659
1.17844
1.34278
1.50858
1.67484
1.84132
2.00794
2.17456
2.34125
2.50787
2.6745
2.8411
3.00772
3.17436
3.34102
3.50767
3.67434
3.84099
4.00764
4.17431
4.34097
4.50764
4.6743
4.84096
5
-1.99166
-1.83355
-1.67012
-1.50562
-1.34085
-1.17607
-1.00977
-0.84296
-0.675993
-0.508871
-0.341535
-0.172926
-0.00234971
0.167451
0.334742
0.501499
0.668257
0.835134
1.00463
1.17624
1.34235
1.50842
1.67479
1.84135
2.00794
2.17456
2.34115
2.50777
2.67442
2.84106
3.00771
3.17436
3.34102
3.50767
3.67434
3.84099
4.00764
4.17431
4.34097
4.50764
4.6743
4.84096
5
-1.99166
-1.83477
-1.67114
-1.50634
-1.34133
-1.17583
-1.00884
-0.841518
-0.673631
-0.505851
-0.338212
-0.170177
-0.00163403
0.166921
0.334095
0.500864
0.667625
0.834692
1.0032
1.17331
1.34089
1.50769
1.67437
1.84103
2.0077
2.1744
2.34105
2.5077
2.67436
2.84103
3.00768
3.17434
3.341
3.50766
3.67432
3.84099
4.00764
4.17431
4.34097
4.50764
4.67431
4.84096
5
-1.99166
-1.83632
-1.67242
-1.50727
-1.34196
-1.17534
-1.00805
-0.840186
-0.671537
-0.502995
-0.334946
-0.167619
-0.00048645
0.166895
0.333772
0.500484
0.667229
0.834128
1.00171
1.17072
1.33901
1.50646
1.67353
1.84042
2.00727
2.17404
2.34077
2.50747
2.67417
2.84086
3.00754
3.17422
3.34089
3.50757
3.67424
3.84091
4.00758
4.17426
4.34093
4.50759
4.67426
4.84093
5
-1.99166
-1.8404
-1.67438
-1.50856
-1.34249
-1.17524
-1.00763
-0.839291
-0.670497
-0.501695
-0.333088
-0.16644
0.00019394
0.166833
0.333496
0.500187
0.666905
0.833636
1.00035
1.16916
1.33777
1.50549
1.67278
1.83987
2.00681
2.17365
2.34045
2.50721
2.67395
2.84067
3.00737
3.17407
3.34077
3.50746
3.67414
3.84082
4.0075
4.17418
4.34086
4.50753
4.6742
4.84087
5
-1.98331
-1.82431
-1.66445
-1.50226
-1.33893
-1.17499
-1.01068
-0.844697
-0.678142
-0.51127
-0.343964
-0.174632
0.00165189
0.182207
0.349983
0.516649
0.683326
0.860665
1.01867
1.18465
1.34804
1.51304
1.67894
1.8452
2.01157
2.17823
2.34505
2.51168
2.6783
2.84485
3.0112
3.17574
3.34189
3.50803
3.67452
3.84116
4.00782
4.17447
4.34113
4.50778
4.67444
4.84109
5
-1.98332
-1.8244
-1.66451
-1.50231
-1.33894
-1.17492
-1.01058
-0.844705
-0.678064
-0.511271
-0.344256
-0.17614
-0.00386464
0.183166
0.349829
0.516491
0.68316
0.854267
1.01007
1.178
1.3418
1.5072
1.6733
1.83966
2.00029
2.17266
2.34245
2.50879
2.67542
2.84197
3.00847
3.17478
3.34129
3.5078
3.67443
3.84108
4.00775
4.1744
4.34105
4.50771
4.67436
4.84102
5
-1.98333
-1.82493
-1.66485
-1.50251
-1.33905
-1.17497
-1.0101
-0.843787
-0.67756
-0.511105
-0.343869
-0.175679
-0.00426621
0.172302
0.33922
0.505903
0.672726
0.841049
1.0056
1.16981
1.33488
1.50085
1.66719
1.8337
2.00028
2.1745
2.34133
2.50792
2.67462
2.84126
3.00788
3.1745
3.34113
3.50777
3.67442
3.84107
4.00774
4.17439
4.34104
4.5077
4.67435
4.84101
5
-1.98332
-1.82613
-1.66589
-1.50328
-1.33952
-1.17522
-1.0092
-0.84258
-0.675872
-0.509034
-0.341594
-0.173593
-0.00236179
0.168677
0.335912
0.502674
0.669455
0.837049
1.0026
1.16858
1.33458
1.50077
1.66717
1.8337
2.00027
2.17441
2.34119
2.50783
2.67453
2.84118
3.00782
3.17447
3.34112
3.50776
3.67442
3.84108
4.00773
4.17438
4.34104
4.5077
4.67435
4.84101
5
-1.98332
-1.82775
-1.66754
-1.50449
-1.34033
-1.17522
-1.00841
-0.841345
-0.673921
-0.506255
-0.338373
-0.169975
-0.00150221
0.167364
0.334616
0.501391
0.668224
0.835432
1.00141
1.16784
1.33424
1.50064
1.66713
1.83366
2.00026
2.17429
2.34101
2.5077
2.67442
2.84109
3.00775
3.17441
3.34107
3.50773
3.67438
3.84105
4.0077
4.17436
4.34103
4.50768
4.67435
4.841
5
-1.98332
-1.83147
-1.67071
-1.50653
-1.34162
-1.17517
-1.00794
-0.840334
-0.672125
-0.503783
-0.335757
-0.168171
-0.000907922
0.166876
0.333873
0.500612
0.66741
0.834421
1.00073
1.16733
1.33391
1.50044
1.66703
1.83362
2.00707
2.17397
2.3407
2.50744
2.6742
2.8409
3.00759
3.17427
3.34095
3.50761
3.67429
3.84095
4.00763
4.17429
4.34096
4.50763
4.6743
4.84096
5
-1.98331
-1.84055
-1.67453
-1.5087
-1.34263
-1.17537
-1.00781
-0.839674
-0.671163
-0.502661
-0.334684
-0.167631
-0.000714037
0.166577
0.333465
0.500186
0.666954
0.833866
1.00031
1.16697
1.3336
1.50021
1.66682
1.83964
2.00669
2.17357
2.34038
2.5072
2.67397
2.84069
3.00741
3.17411
3.34081
3.5075
3.67418
3.84086
4.00754
4.17422
4.3409
4.50757
4.67424
4.84092
5
-1.97493
-1.81805
-1.66009
-1.49955
-1.33716
-1.17362
-1.00898
-0.842672
-0.676124
-0.509339
-0.342093
-0.171883
0.000121866
0.174589
0.341674
0.50833
0.675543
0.845183
1.01479
1.17953
1.34725
1.51324
1.6792
1.84538
2.01177
2.17827
2.34476
2.51135
2.67816
2.84485
3.01139
3.17782
3.34421
3.50884
3.67512
3.84171
4.00836
4.17502
4.34167
4.50832
4.67497
4.84162
5
-1.97495
-1.81828
-1.66035
-1.49982
-1.33746
-1.17397
-1.0094
-0.843071
-0.67652
-0.509799
-0.342754
-0.174012
-0.00159132
0.17372
0.340682
0.507414
0.674391
0.842869
1.00621
1.16981
1.34164
1.50735
1.67355
1.83993
2.00632
2.17278
2.33359
2.50024
2.67534
2.84205
3.00869
3.17529
3.34185
3.50814
3.67466
3.8413
4.00796
4.17461
4.34127
4.50791
4.67456
4.84121
5
-1.97498
-1.81874
-1.66083
-1.50025
-1.33774
-1.17414
-1.00948
-0.843314
-0.676759
-0.509992
-0.342224
-0.173665
-0.00143716
0.170864
0.337781
0.504559
0.671352
0.838995
1.00402
1.16917
1.33483
1.50091
1.66729
1.83376
2.00035
2.16694
2.33358
2.50024
2.67448
2.8412
3.00787
3.17459
3.34126
3.50784
3.67447
3.84112
4.00778
4.17444
4.34108
4.50773
4.67439
4.84103
5
-1.97498
-1.81979
-1.66202
-1.50119
-1.33835
-1.17447
-1.00872
-0.842195
-0.675562
-0.50844
-0.340387
-0.172178
-0.00166867
0.168662
0.335797
0.502544
0.669267
0.836711
1.00232
1.16837
1.3345
1.50079
1.66723
1.83374
2.00032
2.16694
2.33358
2.50022
2.67438
2.8411
3.00778
3.17449
3.34117
3.50781
3.67446
3.84111
4.00776
4.17441
4.34107
4.50772
4.67437
4.84102
5
-1.97498
-1.82171
-1.66432
-1.5029
-1.33946
-1.1746
-1.00806
-0.841116
-0.673767
-0.506042
-0.337833
-0.169654
-0.00153322
0.167376
0.334648
0.501408
0.668238
0.835492
1.00131
1.16777
1.33418
1.50064
1.66714
1.8337
2.00028
2.16694
2.33355
2.50019
2.67423
2.84099
3.00773
3.17442
3.34109
3.50774
3.6744
3.84106
4.00772
4.17438
4.34104
4.50769
4.67435
4.84101
5
-1.97498
-1.82723
-1.66926
-1.50593
-1.34128
-1.17493
-1.00775
-0.840171
-0.672194
-0.504177
-0.336065
-0.168613
-0.0013972
0.166773
0.333881
0.50061
0.667436
0.834562
1.00069
1.16727
1.33386
1.50043
1.66703
1.83362
2.00021
2.16686
2.33348
2.50012
2.67402
2.84081
3.00757
3.17427
3.34096
3.50763
3.67429
3.84097
4.00763
4.1743
4.34097
4.50763
4.6743
4.84097
5
-1.97498
-1.8408
-1.67476
-1.50884
-1.34268
-1.17535
-1.00767
-0.839593
-0.67142
-0.503424
-0.335532
-0.16842
-0.00137785
0.166396
0.333445
0.500182
0.666983
0.834009
1.00027
1.16692
1.33356
1.50018
1.6668
1.83343
2.00007
2.16671
2.33336
2.50691
2.67381
2.84059
3.00738
3.1741
3.34081
3.5075
3.67418
3.84086
4.00754
4.17422
4.3409
4.50757
4.67424
4.84092
5
-1.96656
-1.81353
-1.65856
-1.49909
-1.33692
-1.17342
-1.00782
-0.841356
-0.67442
-0.507108
-0.339088
-0.1695
0.000614638
0.170043
0.337301
0.504026
0.670826
0.838821
1.00718
1.17432
1.34357
1.51138
1.67883
1.84535
2.01187
2.17835
2.34476
2.51125
2.67769
2.84421
3.01064
3.17696
3.34344
3.51
3.67663
3.84326
4.00992
4.17657
4.34322
4.50987
4.67651
4.84317
5
-1.96658
-1.81374
-1.65888
-1.49948
-1.33731
-1.17384
-1.00832
-0.841814
-0.674952
-0.507635
-0.339616
-0.170187
2.19528e-06
0.169599
0.336833
0.503597
0.670333
0.837708
1.00306
1.16865
1.33987
1.50688
1.67344
1.83988
2.00632
2.17276
2.33358
2.50024
2.66687
2.83351
3.00014
3.17555
3.34229
3.50886
3.67549
3.84214
4.0088
4.17545
4.3421
4.50875
4.6754
4.84205
5
-1.96663
-1.8143
-1.65951
-1.49999
-1.33767
-1.17402
-1.00864
-0.842148
-0.675294
-0.507856
-0.339566
-0.171126
-0.000834961
0.168884
0.335898
0.502634
0.669379
0.83651
1.00235
1.16826
1.33442
1.50075
1.66721
1.83376
2.00033
2.16694
2.3336
2.50023
2.66686
2.83351
3.00014
3.17455
3.34136
3.50801
3.67467
3.84132
4.00798
4.17462
4.34127
4.50793
4.67458
4.84123
5
-1.96664
-1.81518
-1.6606
-1.50086
-1.33826
-1.17429
-1.0086
-0.842113
-0.675184
-0.507397
-0.338625
-0.169578
-0.00134361
0.168038
0.335072
0.501764
0.668474
0.835668
1.00157
1.16791
1.33425
1.50068
1.66717
1.83373
2.00031
2.16693
2.33359
2.50021
2.66685
2.83349
3.00013
3.17432
3.34112
3.5078
3.67446
3.84112
4.00777
4.17442
4.34108
4.50773
4.67439
4.84103
5
-1.96664
-1.81711
-1.66289
-1.50246
-1.33925
-1.17443
-1.00797
-0.840868
-0.67333
-0.505457
-0.337052
-0.169119
-0.0014808
0.167219
0.334407
0.501135
0.667925
0.83506
1.00103
1.16755
1.33405
1.50056
1.66711
1.83367
2.0003
2.16694
2.33355
2.50019
2.66683
2.83347
3.00739
3.17424
3.34102
3.50769
3.67436
3.84104
4.0077
4.17435
4.34101
4.50768
4.67434
4.84099
5
-1.96664
-1.82371
-1.66837
-1.50561
-1.34104
-1.17475
-1.00743
-0.839755
-0.671942
-0.504095
-0.336046
-0.168792
-0.00141206
0.166774
0.333849
0.500586
0.667352
0.83436
1.00061
1.16721
1.3338
1.50039
1.66701
1.83361
2.00021
2.16685
2.33349
2.50013
2.66678
2.83343
3.0073
3.17411
3.34088
3.50759
3.67427
3.84093
4.00761
4.17427
4.34095
4.50762
4.67428
4.84095
5
-1.96664
-1.84113
-1.675
-1.50895
-1.34259
-1.17512
-1.00724
-0.839203
-0.671301
-0.50345
-0.335799
-0.168801
-0.00144584
0.166413
0.333446
0.500173
0.666916
0.833795
1.00114
1.16688
1.33352
1.50015
1.66678
1.83342
2.00006
2.16671
2.33336
2.50002
2.66668
2.83334
3.0071
3.17394
3.34073
3.50746
3.67415
3.84083
4.00752
4.1742
4.34087
4.50755
4.67423
4.8409
5
-1.95819
-1.81675
-1.66435
-1.50305
-1.33936
-1.17464
-1.00807
-0.841151
-0.673732
-0.505307
-0.336217
-0.167495
0.000271378
0.167824
0.334692
0.501408
0.668235
0.8354
1.00327
1.1712
1.33988
1.50836
1.67619
1.84338
2.01076
2.17765
2.34431
2.51071
2.67678
2.84314
3.00961
3.17603
3.34263
3.5093
3.67595
3.8426
4.00926
4.1759
4.34256
4.50921
4.67587
4.84255
5
-1.95822
-1.81688
-1.66458
-1.50333
-1.33967
-1.17501
-1.00846
-0.841561
-0.674133
-0.505869
-0.336877
-0.16813
-0.000265317
0.16771
0.334591
0.501299
0.668087
0.83499
1.00115
1.16751
1.33399
1.50505
1.67231
1.83913
2.00594
2.17261
2.33917
2.50575
2.67231
2.83893
3.00559
3.17235
3.33912
3.50581
3.67249
3.83913
4.00579
4.17244
4.33911
4.50576
4.67242
4.83907
5
-1.95828
-1.81721
-1.665
-1.50366
-1.33992
-1.17525
-1.00873
-0.841814
-0.674209
-0.506064
-0.337428
-0.169194
-0.00093891
0.167349
0.334356
0.501073
0.66784
0.83479
1.00098
1.16747
1.33394
1.50047
1.66703
1.83361
2.00025
2.16688
2.33351
2.50014
2.66678
2.83345
3.0001
3.16676
3.34157
3.50836
3.67512
3.84178
4.00845
4.1751
4.34177
4.50842
4.67508
4.84175
5
-1.95831
-1.81776
-1.66557
-1.50409
-1.34018
-1.17544
-1.00887
-0.841622
-0.673793
-0.505684
-0.337017
-0.169076
-0.00141626
0.167014
0.334117
0.500835
0.667596
0.834599
1.0008
1.16736
1.33389
1.50044
1.66701
1.83363
2.00024
2.16687
2.3335
2.50013
2.66679
2.83345
3.0001
3.16675
3.34085
3.50764
3.6744
3.84108
4.00775
4.17441
4.34108
4.50774
4.6744
4.84106
5
-1.95831
-1.819
-1.66672
-1.50482
-1.3406
-1.17521
-1.00819
-0.840652
-0.672966
-0.505103
-0.336359
-0.168756
-0.00138258
0.166857
0.333932
0.500644
0.66741
0.834373
1.00066
1.16724
1.33383
1.5004
1.66698
1.83363
2.00023
2.16686
2.33349
2.50013
2.6668
2.83344
3.00009
3.16675
3.34069
3.50749
3.67426
3.84094
4.00761
4.17429
4.34095
4.50762
4.67429
4.84095
5
-1.9583
-1.82372
-1.66955
-1.5063
-1.3413
-1.17464
-1.00698
-0.839266
-0.671486
-0.503589
-0.33558
-0.168315
-0.000919879
0.166837
0.333773
0.500464
0.667179
0.834036
1.00047
1.16712
1.33372
1.50033
1.66696
1.83356
2.00019
2.16684
2.33348
2.50012
2.66676
2.83342
3.00007
3.16674
3.34058
3.50741
3.67417
3.84086
4.00754
4.17422
4.34089
4.50757
4.67424
4.84091
5
-1.9583
-1.84147
-1.67523
-1.50899
-1.34236
-1.17454
-1.00657
-0.838674
-0.670709
-0.503012
-0.335529
-0.168339
-0.000901513
0.1666
0.333466
0.500168
0.666872
0.83362
1.00056
1.16685
1.3335
1.50013
1.66677
1.83341
2.00005
2.1667
2.33336
2.50002
2.66668
2.83334
3
3.16667
3.34046
3.50732
3.67407
3.84077
4.00746
4.17415
4.34083
4.50751
4.67419
4.84086
5
-1.95
-1.83999
-1.67394
-1.50811
-1.34246
-1.17597
-1.00882
-0.841415
-0.673386
-0.504409
-0.33512
-0.166174
0.000433407
0.167009
0.333616
0.500288
0.667011
0.833722
1.00159
1.16955
1.33773
1.50635
1.67461
1.84204
2.00928
2.17622
2.34297
2.50958
2.67593
2.84249
3.00915
3.17577
3.34244
3.50913
3.67587
3.84255
4.00918
4.17584
4.3425
4.50916
4.67582
4.84253
5
-1.95
-1.8402
-1.67415
-1.50831
-1.34268
-1.17627
-1.00914
-0.841716
-0.673664
-0.50479
-0.335834
-0.167704
-0.000550397
0.166972
0.333591
0.500265
0.666982
0.833689
1.00032
1.16692
1.33351
1.50012
1.67135
1.83844
2.0053
2.17205
2.33876
2.50544
2.67209
2.83876
3.00544
3.17213
3.33883
3.50555
3.67234
3.83904
4.00571
4.17237
4.33904
4.5057
4.67237
4.83903
5
-1.95
-1.84064
-1.67457
-1.50862
-1.34282
-1.17648
-1.00931
-0.841693
-0.673474
-0.504977
-0.336502
-0.16873
-0.00107247
0.166629
0.333525
0.500238
0.667002
0.83388
1.00029
1.1669
1.33351
1.50012
1.66675
1.83339
2.00004
2.16669
2.33335
2.50001
2.66667
2.83334
3
3.16667
3.33333
3.5
3.67504
3.84182
4.00851
4.17518
4.34185
4.50852
4.67519
4.84187
5
-1.95
-1.84086
-1.67474
-1.50871
-1.34288
-1.17657
-1.00916
-0.841174
-0.673007
-0.504959
-0.33659
-0.169055
-0.00157698
0.166412
0.333479
0.500211
0.66699
0.833943
1.00025
1.16688
1.33351
1.50013
1.66676
1.83339
2.00004
2.16669
2.33335
2.50001
2.66667
2.83334
3
3.16667
3.33333
3.5
3.6742
3.84099
4.00768
4.17435
4.34103
4.5077
4.67437
4.84105
5
-1.95
-1.84114
-1.67495
-1.50887
-1.34289
-1.17631
-1.00851
-0.840438
-0.672458
-0.504413
-0.336195
-0.168858
-0.00148794
0.166419
0.333464
0.50019
0.666953
0.833873
1.00022
1.16687
1.3335
1.50013
1.66676
1.8334
2.00005
2.1667
2.33335
2.50001
2.66668
2.83334
3
3.16667
3.33333
3.5
3.67404
3.84082
4.00752
4.1742
4.34088
4.50755
4.67423
4.8409
5
-1.95
-1.84145
-1.67515
-1.50898
-1.34263
-1.17511
-1.00717
-0.839288
-0.67109
-0.503039
-0.335552
-0.168361
-0.000913589
0.166604
0.333473
0.500174
0.666892
0.83368
1.0002
1.16685
1.33349
1.50013
1.66676
1.8334
2.00005
2.1667
2.33336
2.50002
2.66668
2.83334
3
3.16667
3.33334
3.5
3.67399
3.84076
4.00746
4.17414
4.34083
4.50751
4.67419
4.84086
5
-1.95002
-1.84179
-1.67542
-1.50904
-1.34204
-1.17401
-1.00614
-0.838206
-0.670052
-0.502423
-0.335273
-0.168067
-0.000549278
0.166831
0.333494
0.500165
0.666843
0.833519
1.00019
1.16684
1.33349
1.50013
1.66676
1.83341
2.00005
2.1667
2.33336
2.50002
2.66668
2.83334
3
3.16667
3.33334
3.50708
3.67397
3.84071
4.00741
4.1741
4.34078
4.50747
4.67415
4.84083
5
-0.0946529
1.10437
0.0827722
0.25232
0.419048
0.58571
0.752368
0.919245
1.09937
-0.090929
1.10667
0.0874164
0.927116
1.09065
0.936753
0.0883062
0.258237
0.424905
0.591648
0.758806
0.926016
-0.0911272
-0.176906
-0.178009
0.0833075
-0.00457534
-0.0101504
0.166602
1.09814
1.00286
1.17693
1.18247
-0.0926902
-0.178073
0.0823952
-0.000677628
-0.0136618
0.249994
0.166428
0.416667
0.333328
0.583334
0.500002
0.750001
0.666678
0.916822
0.833418
1.09561
1.00215
1.1769
1.18321
0.08297
-0.00404285
0.249943
0.167467
0.416672
0.334456
0.583363
0.501166
0.750122
0.667865
0.917365
0.834684
1.09286
1.00449
1.17842
-0.0937204
-0.177465
-0.175905
-0.0167777
-0.0116308
1.10808
1.02019
1.18528
1.18558
-0.0924256
-0.176619
-0.00496306
-0.00394757
0.171878
0.338574
0.505226
0.671888
0.838855
1.10844
1.00814
1.00704
1.18005
1.17862
0.083718
-0.00363175
0.253167
0.171265
0.419911
0.586624
0.753357
0.920524
0.838829
1.0964
1.00566
1.16991
-0.0875299
-0.17494
0.0914568
0.00166935
0.182291
0.944702
0.856279
0.851318
1.10054
1.01945
1.01845
1.1847
-0.0907303
0.0929969
-0.00453387
-0.0011847
0.266382
0.177088
0.177619
0.433043
0.343636
0.344457
0.599707
0.510241
0.511087
0.766494
0.677015
0.67799
0.931799
0.846915
0.848334
1.09312
1.00847
1.0083
1.17048
0.0861599
-0.00220949
0.25584
0.171847
0.422567
0.33881
0.589326
0.505557
0.756335
0.672404
0.923519
0.840362
1.08761
1.00487
0.931313
0.84453
1.01456
0.0872142
-0.00175344
0.257325
0.172365
0.424034
0.339305
0.590829
0.506056
0.758104
0.672918
0.924784
0.840852
1.00518
0.0854809
0.254413
0.421177
0.58795
0.754833
0.92144
-0.178281
-0.0103541
-0.0951313
-0.0936136
1.1827
1.10577
1.1073
-0.00546779
0.168786
0.0827286
0.0849449
0.335697
0.251053
0.255144
0.502377
0.417826
0.4218
0.66905
0.584513
0.588468
0.835726
0.751235
0.755198
1.00439
0.91836
0.922663
1.17959
1.09568
1.10152
-0.176239
-0.0114961
-0.0912125
-0.0880269
0.0947049
1.0215
0.944146
1.18547
1.09954
1.10036
-0.00346864
0.174472
0.0850459
0.0877966
0.260214
0.426777
0.593449
0.842072
0.760496
1.00979
0.923335
0.929153
1.17087
1.08793
1.08912
0.0897313
0.261083
0.427751
0.594456
0.850287
0.761888
1.01826
0.929184
0.930834
-0.00296786
0.174704
0.0862467
0.0867413
0.341597
0.25541
0.255927
0.508262
0.422182
0.422669
0.675137
0.588956
0.589454
0.843954
0.755916
0.756474
1.00684
0.922716
0.923133
-0.0943861
-0.090855
0.937427
1.10236
1.10717
-0.0915479
0.0832317
0.0823559
0.249965
0.416667
0.583338
0.750027
0.917024
1.09505
1.09444
1.06105
-0.0926302
0.0408026
0.209313
0.376004
0.542669
0.709341
0.876013
1.05756
1.07635
-0.0908194
0.257171
0.423708
0.590391
0.75732
1.05635
0.0912729
0.261913
0.4287
0.595437
0.763181
0.901845
-0.0902621
0.0419539
0.220422
0.387025
0.553647
0.720514
0.891695
-0.052882
0.0352682
1.06011
0.126663
0.29264
0.459317
0.625978
0.792645
0.959469
1.06589
-0.0510575
-0.0493598
1.07388
0.0411074
0.968497
0.892351
0.972321
0.898691
0.136224
0.303736
0.470321
0.637028
0.804858
0.249999
0.416667
0.333333
0.583333
0.5
0.75
0.666667
0.917008
0.833341
1.05265
1.00307
1.00553
-0.175672
-0.00502471
0.0390416
-0.00460245
-0.00772721
0.124655
0.208307
0.166501
0.169047
0.291665
0.375
0.333332
0.33576
0.458333
0.541667
0.5
0.502428
0.625
0.708334
0.666669
0.669095
0.79167
0.875036
0.833362
0.835759
1.00261
0.958953
1.05063
1.00192
1.00359
-0.0871385
-0.175395
-0.0530028
-0.0167902
-0.0146927
1.07783
-0.176268
-0.00907819
-0.0116958
-0.0498362
-0.00487757
1.07395
1.00951
-0.0896681
-0.1751
0.338173
0.504867
0.671608
0.00193443
0.266625
0.177512
0.433318
0.349967
0.345519
0.599981
0.51663
0.512172
0.767285
0.683299
0.679166
0.904442
0.856805
0.856126
-0.176105
-0.175493
-0.00609774
-4.16988e-05
0.0504416
-0.00453415
-0.00213584
0.141157
0.224814
0.180834
0.180556
0.308143
0.391472
0.34735
0.347249
0.474802
0.558134
0.513981
0.513899
0.641469
0.724816
0.680681
0.680627
0.856004
0.80896
0.890671
0.850834
0.852554
1.01038
0.971212
1.00965
-0.0904344
-0.174115
0.0885849
-0.000197317
0.258253
0.174471
0.42501
0.341419
0.591871
0.508138
0.759603
0.675248
-0.0881234
-0.174372
-0.0884802
-0.0531247
-0.0951205
-0.0945297
0.0880227
1.07222
1.10455
1.10368
1.09795
0.0823854
0.0388992
0.126564
0.0827228
0.253437
0.210605
0.294002
0.25034
0.420124
0.377395
0.460692
0.417044
0.586791
0.54406
0.62736
0.583709
0.753448
0.710729
0.79402
0.750394
0.920151
0.877473
0.96125
0.917293
1.10219
1.05661
1.1015
1.09597
-0.0922479
-0.0485849
-0.0911527
-0.090818
1.10939
1.06203
1.1055
1.10697
0.087869
0.0414611
0.0883821
0.92447
0.929877
0.884526
0.969475
0.929264
1.09157
1.09176
1.05043
0.942173
0.895245
0.93394
0.937252
0.0883156
0.0886657
0.042591
0.132374
0.259527
0.25985
0.216539
0.299926
0.426129
0.426496
0.383234
0.466587
0.592828
0.593211
0.54996
0.633357
0.759946
0.760506
0.716932
0.800974
0.927846
0.927856
0.885362
-0.00902956
0.0398995
1.10153
1.09558
1.00483
1.05067
1.07055
0.0890498
0.0829108
0.0821191
-0.00457236
0.0406344
-0.0124887
-0.0530717
0.0192394
-0.00569127
0.252427
0.249984
0.166828
0.124447
0.208242
0.170015
0.419093
0.416667
0.333702
0.291653
0.374998
0.336791
0.585758
0.583334
0.500381
0.458334
0.54167
0.50345
0.752425
0.750007
0.667047
0.625007
0.70835
0.670123
0.919119
0.916862
0.833758
0.791713
0.875167
0.836784
1.09905
1.09511
1.09532
1.00226
0.959139
1.05083
1.0721
1.00477
-0.0936351
-0.0923869
-0.0156418
-0.0524336
-0.0146479
-0.0116323
-0.0488797
1.1083
1.11088
1.07395
1.02166
1.06275
-0.0939061
-0.0929634
-0.0915307
-0.00933971
-0.0481707
-0.00409096
0.923869
0.843199
1.10794
1.10569
1.10495
1.10206
1.00643
0.964808
1.05987
1.01
1.01888
1.05008
1.01231
0.00367481
0.0523619
0.944396
0.942661
0.90454
0.854569
0.850773
0.895907
0.0942434
0.0881552
0.0916621
-0.00400281
0.0408404
-0.00352358
0.0440034
-0.0029724
0.263546
0.263864
0.134558
0.218691
0.17614
0.135368
0.219371
0.176438
0.430155
0.430499
0.301927
0.385231
0.342881
0.302793
0.386095
0.343213
0.596796
0.597134
0.468518
0.551848
0.509484
0.469411
0.552775
0.50985
0.763653
0.7643
0.635232
0.718708
0.67631
0.636208
0.719842
0.67672
0.941019
0.932097
0.931863
0.844498
0.80289
0.889155
0.845877
0.849592
0.804516
0.889523
0.846258
1.00919
0.968706
0.036119
0.210759
0.294091
0.377429
0.460757
0.544095
0.627424
0.71076
0.794091
1.0051
0.877427
1.0046
0.961011
1.09837
1.06015
1.07175
-0.176196
-0.00679608
-0.0887812
-0.0913888
-0.0520524
0.0348196
0.0834078
0.0409064
0.0365117
0.167663
0.250985
0.208622
0.211838
0.33433
0.417663
0.375375
0.378547
0.501001
0.58433
0.542047
0.545212
0.667667
0.750999
0.708724
0.711868
0.834333
0.91771
0.875487
0.878539
1.06093
1.0019
1.09793
1.05272
1.06276
-0.0922916
-0.0146874
0.266616
0.433299
0.599962
0.7669
0.904995
0.971519
0.900384
1.07556
1.11043
1.07598
1.06223
-0.176005
-0.0895081
-0.0911939
-0.0484901
-0.00527108
0.0406531
0.340463
0.254797
0.222333
0.305595
0.507088
0.421482
0.388897
0.472207
0.673793
0.588223
0.555529
0.638874
0.755135
0.722259
0.847888
0.80621
0.925482
0.885853
1.06663
1.066
1.01099
1.09409
1.05145
1.05169
0.0012793
-0.0896358
0.177923
0.0446801
0.088358
0.0489611
0.138209
0.345378
0.222223
0.258059
0.305561
0.512042
0.388885
0.424778
0.4722
0.678972
0.555512
0.591623
0.63887
0.855081
0.722345
0.75919
0.853998
0.807086
0.942677
0.901348
0.895734
-0.175506
-0.00355948
-0.0897477
-0.0894775
0.041372
0.0887445
0.0418971
0.0426389
0.178783
0.262008
0.217871
0.21819
0.345438
0.428613
0.384488
0.384827
0.512031
0.595259
0.551161
0.551536
0.67879
0.762396
0.718073
0.718533
0.894502
0.894022
0.849428
0.930498
0.887679
0.887722
-0.0540613
-0.0100949
-0.0532872
-0.0527009
-0.0944062
-0.0132306
-0.0508351
0.0880643
0.127381
1.09817
1.07199
1.07387
1.06746
0.125063
0.127237
0.292024
0.294802
0.458711
0.461479
0.625377
0.628144
0.792069
0.7948
0.959334
0.961642
1.00695
0.965451
1.1047
1.05928
-0.0507797
-0.0485907
-0.0920666
-0.0485609
-0.00973948
0.00209159
1.10724
1.06008
0.0886616
0.0417341
0.13837
0.966699
0.970642
0.933691
0.888157
0.969336
1.0106
0.970795
0.938771
0.893141
0.133656
0.134127
0.301218
0.301548
0.467815
0.468159
0.634546
0.634935
0.802198
0.80287
0.0906747
0.261983
0.428836
0.595589
0.763603
0.902076
1.06737
1.07643
-0.0513672
-0.088808
0.0401071
0.249998
0.208282
0.416667
0.374999
0.583333
0.541667
0.75
0.708337
0.916913
0.87507
1.05109
1.05147
0.039359
0.12449
0.291661
0.458334
0.625002
0.79168
0.958909
1.05057
1.26444
1.2612
1.26586
1.2525
-0.0869826
0.883742
1.09837
0.202159
0.368729
0.535371
0.702094
0.876181
1.0881
-0.0517203
-0.0533123
0.127307
1.13761
1.13754
1.07228
1.07243
0.0365719
0.129642
0.21352
0.296814
0.380208
0.463488
0.546876
0.63016
0.713538
0.796821
0.880269
0.963906
1.13747
1.14204
-0.0448471
-0.0467338
0.0224312
1.14689
1.14518
1.06024
1.05854
0.0167121
0.136955
0.874207
1.13161
1.05037
0.877505
0.16041
0.327074
0.493711
0.660398
0.8288
0.969298
0.210711
0.294048
0.377382
0.460714
0.544048
0.627381
0.710714
0.794049
0.961435
0.877381
0.961239
1.08426
1.08418
-0.0480687
0.0130388
0.0604908
0.19038
0.232054
0.357056
0.398723
0.523726
0.565386
0.690391
0.732056
0.85705
0.898712
1.02255
1.08443
0.980918
1.0883
1.09367
1.09334
1.08873
-0.04835
0.220159
0.303158
0.386473
0.469789
0.55313
0.636465
0.719822
0.804088
1.08681
1.03277
1.07236
0.0464805
0.13854
0.22268
0.306142
0.38948
0.4728
0.556125
0.639492
0.809057
0.723009
0.808153
0.883463
0.0650636
0.243623
0.410231
0.576872
0.743674
-0.0332486
0.0108771
-0.00438537
1.08435
1.08475
0.1486
0.105988
0.315297
0.273627
0.481965
0.440297
0.648626
0.606964
0.815294
0.773628
0.981797
0.94027
1.0905
1.08844
-0.0300812
-0.0314222
-0.0295939
1.08731
1.08415
0.0659939
0.992612
0.914327
0.982459
0.951921
0.958465
0.882664
0.115104
0.285266
0.45189
0.618545
0.785637
0.959608
1.26211
1.13907
1.17757
1.18077
1.34168
1.34691
-0.0474961
0.166581
0.333333
0.5
0.666667
0.83334
1.25951
1.17699
1.13655
1.17757
1.17855
1.34171
1.34679
1.25888
1.34339
-0.0154094
1.26601
1.14575
1.18519
1.18552
1.34822
1.3476
-0.00668411
0.173476
0.340107
0.506773
0.673438
0.840238
1.26507
1.18468
1.18544
1.14565
1.18137
1.17865
1.34302
1.34152
1.26035
1.3348
-0.173744
0.0032165
-0.0430978
0.00194215
0.811273
0.886056
0.857721
0.858955
1.01873
1.05917
1.01896
1.26631
1.18203
1.348
-0.0474027
-0.00530286
-0.00217103
0.0190152
-0.00391006
0.183187
0.162292
0.204004
0.182965
0.182085
0.349928
0.328998
0.370661
0.349576
0.348739
0.516593
0.495656
0.537323
0.516233
0.515396
0.683261
0.662322
0.703995
0.682903
0.682089
0.85549
0.830883
0.878925
0.850375
0.854233
1.01802
1.04962
1.0093
1.25973
1.17696
1.33505
1.25219
1.16947
-0.0856233
-0.172407
1.09639
1.17994
1.08775
1.16955
1.0865
-0.0944955
-0.0939762
1.14264
1.10581
1.08658
1.10445
1.10415
1.10228
0.0837252
0.253892
0.420577
0.587267
0.753939
0.92098
1.13927
-0.0893621
1.14606
1.10254
1.10813
1.08443
1.10632
1.10663
0.132488
1.13058
1.08976
0.966413
-0.0490314
-0.00999862
-0.0530416
0.169006
0.124923
0.208316
0.959344
1.17781
1.13605
1.18258
1.14207
-0.0938387
-0.092023
-0.0923286
-0.0469646
-0.0131538
-0.0115469
-0.0145721
0.00847347
-0.0116051
0.249997
0.170486
0.416667
0.337198
0.583333
0.503865
0.75
0.670534
0.916871
0.837192
1.00412
1.17754
1.13579
1.18299
1.14374
1.18087
-0.0944946
-0.0161823
-0.0177568
-0.0328965
-0.0157152
1.10379
1.09123
1.10823
1.11082
1.14574
1.18536
1.18552
1.14636
0.0847566
-0.0057651
0.0394251
-0.00516183
-0.00120266
0.0187576
0.256281
0.170436
0.12973
0.213543
0.175723
0.422931
0.337274
0.296865
0.380178
0.5896
0.503939
0.463516
0.546839
0.756286
0.670612
0.630182
0.713547
0.837364
0.797001
0.88073
1.09077
1.10853
1.10657
1.10684
1.01015
1.03086
1.00632
1.18066
1.14038
1.17093
1.18456
1.13895
1.17107
-0.0876317
-0.0889137
-0.0436078
0.00208483
0.138415
0.224873
0.179949
0.856436
0.856185
0.886081
0.856357
0.809936
0.806827
1.10037
1.10293
1.02026
0.981191
1.05928
-0.091155
-0.0893983
-0.0912369
0.0694302
0.11838
0.087536
0.0919419
-0.0477665
0.000578112
0.245592
0.287255
0.265871
0.265293
0.26658
0.17603
0.17808
0.412251
0.453914
0.432523
0.431934
0.433249
0.342223
0.345105
0.578914
0.620583
0.599185
0.598595
0.599912
0.508824
0.511758
0.745623
0.787576
0.765881
0.765539
0.766808
0.675567
0.678669
0.91379
0.951625
0.92476
0.931899
1.09425
1.09938
1.08964
1.04865
1.00766
0.968591
1.00767
-0.0933313
0.0824042
0.253858
0.420529
0.587193
0.753858
0.920526
1.10493
1.10392
1.10349
1.08795
1.10705
1.10925
1.10813
1.08885
-0.0504707
-0.0283274
-0.0135021
-0.0115805
-0.0121197
-0.0912462
0.0922591
0.930522
1.10344
1.09175
1.10072