TITLE = "Example Grid File"
FILETYPE = GRID
VARIABLES = "X" "Y" "Z"
Zone
ZoneType=FEPOLYHEDRON
NODES=5993
FACES=15113
ELEMENTS=4601
TotalNumFaceNodes=61218
NumConnectedBoundaryFaces=0
TotalNumBoundaryConnections=0
-2
-1.83592
-1.67079
-1.50588
-1.34108
-1.17623
-1.01133
-0.844747
-0.677898
-0.511022
-0.344017
-0.176483
-0.00414196
0.166609
-2
-1.83593
-1.67082
-1.50593
-1.34142
-1.17658
-1.01169
-0.844997
-0.678135
-0.511224
-0.344336
-0.176352
-0.00545775
0.166561
-2
-1.83657
-1.67132
-1.50634
-1.34142
-1.1765
-1.01104
-0.844476
-0.677932
-0.509918
-0.342595
-0.175233
-0.000160728
0.166435
-2
-1.83759
-1.67202
-1.50677
-1.34167
-1.17661
-1.0101
-0.843245
-0.676313
-0.508723
-0.342124
-0.170063
0.000159938
0.166401
0.333365
-2
-1.83866
-1.67288
-1.50738
-1.34206
-1.17626
-1.00915
-0.841873
-0.67369
-0.506187
-0.338725
-0.166349
0.00020068
0.166353
0.333386
0.500143
-2
-1.83963
-1.6737
-1.50801
-1.34246
-1.17563
-1.00832
-0.84061
-0.671932
-0.503618
-0.334535
-0.167404
-0.000464248
0.166578
0.333448
0.500177
-2
-1.84046
-1.67442
-1.50857
-1.34241
-1.17515
-1.00763
-0.839134
-0.670708
-0.501143
-0.333754
-0.166922
-0.000181612
0.166669
0.33347
0.500189
-1.99167
-1.83163
-1.66901
-1.50504
-1.34066
-1.17615
-1.01156
-0.845319
-0.678562
-0.511736
-0.344795
-0.177404
-0.016798
-1.99167
-1.83162
-1.66899
-1.50499
-1.3406
-1.17599
-1.0113
-0.845054
-0.678318
-0.511503
-0.344675
-0.177289
-0.00692521
-1.99167
-1.83231
-1.6693
-1.50512
-1.3406
-1.17591
-1.01072
-0.844275
-0.677975
-0.511115
-0.343845
-0.174927
-0.00433843
0.16926
-1.99166
-1.83355
-1.67013
-1.50563
-1.34092
-1.17607
-1.00979
-0.842966
-0.676024
-0.508936
-0.341585
-0.172989
-0.002449
0.167315
0.334592
-1.99166
-1.83478
-1.67115
-1.50636
-1.34139
-1.17586
-1.00884
-0.841502
-0.673655
-0.505897
-0.338256
-0.170233
-0.00170249
0.166859
0.334029
0.500792
-1.99166
-1.83633
-1.67244
-1.50728
-1.342
-1.17536
-1.00806
-0.840192
-0.671549
-0.503011
-0.334991
-0.16765
-0.000513844
0.166856
0.333733
0.500453
-1.99166
-1.8404
-1.67438
-1.50856
-1.34249
-1.17524
-1.00763
-0.839291
-0.670497
-0.501695
-0.333088
-0.16644
0.00019394
0.166833
0.333496
0.500187
-1.98331
-1.8243
-1.66443
-1.50229
-1.33893
-1.175
-1.01058
-0.844696
-0.678208
-0.511383
-0.34409
-0.174764
0.00162749
0.182173
-1.98332
-1.82438
-1.66451
-1.50234
-1.33896
-1.17494
-1.01056
-0.844698
-0.678125
-0.511358
-0.344385
-0.176314
-0.00392844
0.183142
-1.98333
-1.82492
-1.66485
-1.50254
-1.33906
-1.17496
-1.01015
-0.843834
-0.677597
-0.511165
-0.343983
-0.175858
-0.00461848
0.171862
-1.98332
-1.82612
-1.66589
-1.50327
-1.33956
-1.17526
-1.00931
-0.842626
-0.675902
-0.509081
-0.341658
-0.173709
-0.00253328
0.168456
0.335657
-1.98332
-1.82776
-1.66754
-1.50452
-1.34038
-1.17528
-1.0085
-0.841347
-0.673927
-0.50632
-0.338433
-0.170052
-0.00159892
0.167244
0.334489
0.501268
-1.98332
-1.83148
-1.67074
-1.50655
-1.34163
-1.17521
-1.00797
-0.840314
-0.672129
-0.503801
-0.335806
-0.168218
-0.000941921
0.16684
0.33384
0.500569
-1.98331
-1.84055
-1.67453
-1.5087
-1.34263
-1.17537
-1.00781
-0.839674
-0.671163
-0.502661
-0.334684
-0.167631
-0.000714037
0.166577
0.333465
0.500186
-1.97493
-1.81803
-1.6601
-1.49959
-1.33715
-1.1737
-1.00896
-0.842576
-0.676075
-0.509376
-0.342227
-0.172021
-6.01692e-05
0.174275
-1.97495
-1.81825
-1.66036
-1.49985
-1.33744
-1.17399
-1.00945
-0.843039
-0.676503
-0.509858
-0.342883
-0.174171
-0.0017313
0.173455
-1.97498
-1.81868
-1.66084
-1.50026
-1.33775
-1.17414
-1.00947
-0.843388
-0.676827
-0.510044
-0.342309
-0.173817
-0.00166896
0.17056
-1.97498
-1.81976
-1.66199
-1.50119
-1.33837
-1.17445
-1.00877
-0.842354
-0.675564
-0.508514
-0.340459
-0.172294
-0.00180333
0.168473
0.335582
-1.97498
-1.82172
-1.66432
-1.50294
-1.33953
-1.1747
-1.00814
-0.841149
-0.673748
-0.506118
-0.3379
-0.169754
-0.00163689
0.167265
0.334527
0.501294
-1.97498
-1.82724
-1.66929
-1.50597
-1.34131
-1.17498
-1.00782
-0.840184
-0.672199
-0.504188
-0.336116
-0.168655
-0.00142797
0.166738
0.333848
0.500577
-1.97498
-1.8408
-1.67476
-1.50884
-1.34268
-1.17535
-1.00767
-0.839593
-0.67142
-0.503424
-0.335532
-0.16842
-0.00137785
0.166396
0.333445
0.500182
-1.96656
-1.81346
-1.65856
-1.49914
-1.33697
-1.17335
-1.00783
-0.84124
-0.674472
-0.507133
-0.339198
-0.169579
0.000490149
0.16988
0.337087
-1.96658
-1.81367
-1.65885
-1.49949
-1.33733
-1.17382
-1.00836
-0.84179
-0.674993
-0.507681
-0.339715
-0.170283
-0.000110421
0.169434
0.336637
-1.96663
-1.81421
-1.65946
-1.49995
-1.3377
-1.17402
-1.00862
-0.842156
-0.675346
-0.507895
-0.339634
-0.171242
-0.000955739
0.168733
0.335726
-1.96664
-1.81513
-1.66057
-1.50084
-1.33827
-1.17431
-1.00868
-0.842246
-0.675213
-0.507454
-0.338709
-0.169689
-0.00146124
0.167916
0.334937
0.501643
-1.96664
-1.8171
-1.66289
-1.50252
-1.33929
-1.17451
-1.00804
-0.840982
-0.673304
-0.50553
-0.337097
-0.16919
-0.00154618
0.167131
0.334319
0.501056
-1.96664
-1.82374
-1.66841
-1.50565
-1.34108
-1.17478
-1.00749
-0.839759
-0.671935
-0.504104
-0.336079
-0.168831
-0.001429
0.166747
0.333823
0.500543
-1.96664
-1.84113
-1.675
-1.50895
-1.34259
-1.17512
-1.00724
-0.839203
-0.671301
-0.50345
-0.335799
-0.168801
-0.00144584
0.166413
0.333446
0.500173
-1.95819
-1.81663
-1.6643
-1.50302
-1.33937
-1.1746
-1.00807
-0.841086
-0.673737
-0.505395
-0.336287
-0.167569
0.000194225
0.16775
0.334628
0.501351
-1.95822
-1.81679
-1.66451
-1.50329
-1.33964
-1.17502
-1.0084
-0.841497
-0.674181
-0.505938
-0.336947
-0.168205
-0.000339093
0.167637
0.334527
0.501264
-1.95828
-1.81715
-1.66501
-1.50367
-1.33991
-1.17522
-1.00874
-0.841789
-0.674243
-0.506127
-0.337485
-0.169248
-0.00100429
0.167283
0.334297
0.50104
-1.95831
-1.81772
-1.66557
-1.5041
-1.34021
-1.17547
-1.00891
-0.841665
-0.6738
-0.505719
-0.337069
-0.169116
-0.00146921
0.166958
0.334086
0.500807
-1.95831
-1.81904
-1.66676
-1.50486
-1.34065
-1.17524
-1.00826
-0.840723
-0.672949
-0.505111
-0.336404
-0.1688
-0.00141049
0.166832
0.333912
0.500621
-1.9583
-1.82377
-1.66959
-1.50635
-1.34135
-1.17465
-1.00705
-0.839252
-0.671472
-0.503609
-0.335625
-0.16835
-0.000959293
0.16682
0.333738
0.500437
-1.9583
-1.84147
-1.67523
-1.50899
-1.34236
-1.17454
-1.00657
-0.838674
-0.670709
-0.503012
-0.335529
-0.168339
-0.000901513
0.1666
0.333466
0.500168
-1.95
-1.83999
-1.67394
-1.50811
-1.34246
-1.17597
-1.00882
-0.841415
-0.673386
-0.504409
-0.33512
-0.166174
0.000433407
0.167009
0.333616
0.500288
-1.95
-1.8402
-1.67415
-1.50831
-1.34268
-1.17627
-1.00914
-0.841716
-0.673664
-0.50479
-0.335834
-0.167704
-0.000550397
0.166972
0.333591
0.500265
-1.95
-1.84064
-1.67457
-1.50862
-1.34282
-1.17648
-1.00931
-0.841693
-0.673474
-0.504977
-0.336502
-0.16873
-0.00107247
0.166629
0.333525
0.500238
-1.95
-1.84086
-1.67474
-1.50871
-1.34288
-1.17657
-1.00916
-0.841174
-0.673007
-0.504959
-0.33659
-0.169055
-0.00157698
0.166412
0.333479
0.500211
-1.95
-1.84114
-1.67495
-1.50887
-1.34289
-1.17631
-1.00851
-0.840438
-0.672458
-0.504413
-0.336195
-0.168858
-0.00148794
0.166419
0.333464
0.50019
-1.95
-1.84145
-1.67515
-1.50898
-1.34263
-1.17511
-1.00717
-0.839288
-0.67109
-0.503039
-0.335552
-0.168361
-0.000913589
0.166604
0.333473
0.500174
-1.95002
-1.84179
-1.67542
-1.50904
-1.34204
-1.17401
-1.00614
-0.838206
-0.670052
-0.502423
-0.335273
-0.168067
-0.000549278
0.166831
0.333494
0.500165
-0.0946702
0.0827011
0.251798
-0.0910052
0.0867323
0.0880083
0.257857
-0.0911272
-0.176906
-0.178035
0.0833075
-0.00457534
-0.0101601
0.166602
-0.0926902
-0.178108
0.0823952
-0.000677628
-0.013682
0.249994
0.166428
0.08297
-0.0040744
0.249943
0.167349
-0.0937631
-0.177539
-0.176008
-0.0167784
-0.0116348
-0.0924902
-0.176744
-0.0051139
-0.00399157
0.171439
0.0834739
-0.00392418
0.252682
0.170758
-0.087675
-0.175108
0.0914679
0.00162086
0.182266
-0.0909017
0.092976
-0.00476168
-0.00135748
0.266352
0.176665
0.177354
0.0858413
-0.00255867
0.255358
0.171508
0.0870102
-0.0019678
0.256962
0.172078
0.0852217
0.254098
-0.178304
-0.0103574
-0.0951519
-0.0936658
-0.00551772
0.168573
0.0826747
0.0847156
0.250872
0.253959
-0.176343
-0.0114992
-0.091315
-0.0881298
0.0946985
-0.00369896
0.173437
0.0846669
0.0874749
0.259785
0.0895298
0.260768
-0.00319699
0.174396
0.0859476
0.0865051
0.255046
0.255577
-0.0944057
-0.0909393
-0.0915479
0.0832317
0.0823559
0.249965
-0.0926637
0.040804
0.209171
-0.0909896
0.256214
0.0911069
0.261348
-0.0904926
0.0417893
0.220185
-0.0529126
0.0352664
0.12663
-0.0510756
-0.0493974
0.0409717
0.136031
-0.175672
-0.00502471
0.0390416
-0.00460245
-0.00773318
0.124655
0.208307
0.166501
0.168978
-0.0871385
-0.175426
-0.0530101
-0.0167924
-0.0146971
-0.176354
-0.00908819
-0.0117005
-0.0498907
-0.00491279
-0.0897666
-0.17523
0.00178875
0.265902
0.177152
-0.17628
-0.175687
-0.00612985
-5.28233e-05
0.0504213
-0.00470184
-0.00222025
0.141133
0.22479
0.180652
0.18041
-0.0906569
-0.174283
0.0883289
-0.000348617
0.257838
0.174139
-0.088265
-0.174534
-0.0886632
-0.0531432
-0.0951469
-0.0945753
0.0880228
0.0823709
0.0388338
0.126452
0.0827034
0.252051
0.210248
0.250265
-0.0922905
-0.0486063
-0.0912267
-0.0908863
0.0866342
0.041083
0.0878596
0.0880091
0.0883985
0.0423537
0.132052
0.259113
0.259513
0.216196
-0.00903678
0.0398995
0.0890498
0.0829108
0.0821191
-0.00457167
0.0406344
-0.0124887
-0.0530885
0.0192397
-0.00572697
0.252328
0.249984
0.166789
0.124447
0.208242
0.169819
-0.0936811
-0.092457
-0.0156371
-0.0524603
-0.0146513
-0.0116366
-0.0488941
-0.0939538
-0.0930292
-0.0916126
-0.00934326
-0.0482433
-0.00424541
0.00367789
0.0523627
0.0942361
0.0880305
0.0915622
-0.00425203
0.0405849
-0.00373723
0.0438091
-0.00314678
0.263355
0.263644
0.134168
0.218316
0.175802
0.135145
0.219072
0.176157
0.0361179
0.210741
-0.176227
-0.00679733
-0.0888156
-0.0914909
-0.05208
0.034819
0.0834055
0.0409027
0.0364913
0.167476
0.25067
0.208564
0.2111
-0.0923466
-0.0146925
0.266135
-0.176133
-0.0896927
-0.0913628
-0.0485683
-0.00541982
0.040406
0.25426
0.222158
0.00115026
-0.0898045
0.177629
0.044609
0.0881325
0.0489591
0.138085
0.222067
0.257673
-0.175697
-0.00373087
-0.0899554
-0.0896584
0.0412703
0.0885489
0.0416568
0.0424479
0.178543
0.261718
0.217531
0.217863
-0.0540803
-0.0101003
-0.0533164
-0.0527193
-0.0944524
-0.0132296
-0.0508692
0.0880634
0.127381
0.125024
0.127184
-0.0508054
-0.0486049
-0.0921288
-0.048595
-0.00974691
0.00209574
0.0882963
0.0414147
0.138213
0.133323
0.13386
0.0904803
0.261224
-0.0513814
-0.088808
0.0401071
0.208282
0.039359
0.12449
-0.087167
0.202034
-0.0517231
-0.0533415
0.127306
0.0365321
0.12958
0.21305
-0.0448795
-0.0467966
0.0224274
0.0166577
0.136272
0.160287
0.210706
-0.0480698
0.0130259
0.0604908
0.190126
0.231476
-0.0485235
0.219714
0.0464214
0.138449
0.222475
0.0649857
0.243491
-0.0332632
0.0108802
-0.00438816
0.148515
0.105988
-0.0300833
-0.0314325
-0.0296095
0.0659581
0.114998
-0.0474961
0.166581
-0.0154075
-0.00676534
0.173278
-0.173893
0.00322496
-0.0432079
0.00190238
-0.0475538
-0.00535246
-0.00221618
0.0189829
-0.00402984
0.183172
0.162269
0.203979
0.182919
0.182008
-0.0858091
-0.172565
-0.0945165
-0.0939812
0.0835964
0.253037
-0.0894145
0.131534
-0.0490314
-0.0100033
-0.0530525
0.169004
0.124923
0.208316
-0.0938465
-0.092023
-0.0923286
-0.0469646
-0.0131692
-0.0115597
-0.0145818
0.00847306
-0.0116345
0.17037
-0.0945165
-0.0161844
-0.017755
-0.0329158
-0.0157207
0.0846596
-0.00586311
0.0392272
-0.00519037
-0.00120776
0.018745
0.253694
0.170126
0.129405
0.212845
0.172766
-0.0877879
-0.0889776
-0.0437077
0.0020161
0.138402
0.224772
0.179787
-0.0913054
-0.0895216
-0.0914278
0.0694123
0.118361
0.0875023
0.0918974
-0.0479927
0.000400887
0.245566
0.265832
0.265184
0.266522
0.175255
0.177806
-0.0933532
0.0824057
0.251468
-0.0505105
-0.028327
-0.0135083
-0.0115843
-0.0121176
-0.0913817
0.0921981
-0.0475733
0.214995
0.258205
0.0910361
0.261296
-0.0925329
0.0152108
0.0411169
0.0616386
0.042374
0.21041
0.188336
0.229934
0.210355
-0.0911998
0.255112
0.0464573
0.135329
0.263735
0.219596
0.0425468
0.0417415
0.0656111
0.221377
0.221351
0.199404
0.240934
-0.0533325
-0.0325221
-0.0518319
0.03429
0.0131828
0.0370764
0.105133
0.146838
0.12759
0.12689
-0.0312932
-0.0509537
-0.0500596
-0.0500055
-0.0504195
-0.0488947
-0.0285804
0.0176402
0.0396676
0.0460509
0.0643008
0.13726
0.112759
0.157561
0.137254
-0.00734079
0.0126055
-0.00824001
0.189887
0.167651
0.148157
-0.00647762
0.0125406
-0.0126249
-0.0302699
-0.0107312
-0.00545829
0.000928031
0.0150385
0.0221177
-0.000454869
0.0443253
0.0500257
0.0492278
0.0299829
-0.00545493
0.0180112
0.139673
0.14108
0.224512
0.223637
0.201447
0.179803
0.159737
0.159463
0.201263
0.179731
0.0827542
0.0596134
0.105446
0.251485
0.231695
-0.0498688
-0.0485308
-0.0488138
0.0593877
0.0906506
0.107273
-0.0118841
-0.0109966
0.0076775
0.0336503
0.0401507
-0.00666263
0.0142757
0.231555
0.250837
0.125986
0.210814
0.168738
0.190557
0.148793
-0.0334081
-0.0158081
-0.0531688
-0.0519947
-0.0516559
-0.0146779
-0.0310572
-0.0140948
-0.0136116
-0.0283954
-0.0279919
-0.00879559
-0.00845552
0.0862836
0.0639614
0.0886401
0.0890099
0.114409
0.0686025
0.115452
0.0894064
0.242726
0.262792
0.242852
0.262852
0.210581
-0.0932425
0.0145581
0.189497
-0.0135842
0.224874
0.0365326
0.214027
0.215203
-0.174398
-0.0862634
-0.0432074
-0.0454107
0.000793797
0.0473593
0.222232
0.0184699
0.0425043
0.181222
0.203737
0.202842
0.222785
0.200626
0.20057
-0.0508251
-0.0531006
-0.0933508
-0.0526851
-0.0131376
-0.0945442
-0.0155412
-0.0337214
-0.0312775
0.12722
0.0124676
0.169005
0.148227
0.0830467
0.0385746
-0.00781219
0.0142092
0.0600795
0.0103913
0.128045
0.17126
0.13077
0.149287
0.10614
0.2534
0.211665
0.190987
0.232034
-0.0293951
-0.0892088
-0.0451994
0.00343889
-0.0282997
-0.0903946
-0.00323372
-0.0482945
-0.0286998
-0.00326057
0.0205304
0.0206284
0.00653588
0.0237868
0.141324
0.131983
-0.00532929
0.0169734
0.0426249
0.0170181
0.133127
0.16211
0.176952
0.0900579
0.116836
0.161071
0.138757
0.158834
0.158769
-0.0475228
-0.0518898
-0.0073224
0.0617795
0.061628
0.0420122
0.0156135
0.0114604
0.057715
0.0800415
0.230974
0.231028
0.210877
0.1896
0.168927
0.25112
-0.0478173
-0.0915353
-0.0476939
-0.0484876
0.259202
0.216839
0.245167
0.136739
0.0928301
0.0457982
0.0677132
0.135659
0.180674
0.116749
0.264145
0.219604
0.2444
0.0652005
0.0663794
0.0634883
0.0887921
0.242064
0.242084
0.264231
-0.00895578
-0.0334517
-0.052845
-0.0172215
-0.0323368
0.00910552
0.0358777
0.00328758
0.105459
0.106975
0.127708
0.147931
-0.0499518
-0.0311955
-0.0320004
-0.0301938
-0.029967
-0.0496671
-0.051171
-0.0305172
-0.0151485
-0.0279472
-0.0130002
0.0182322
0.0656174
0.06419
0.113794
0.113929
-0.0862372
-0.0535154
-0.0450444
-0.047665
0.124814
-0.0473761
0.208312
0.0361891
0.210697
0.187584
0.082596
0.250501
0.0368015
0.215581
0.083512
0.252648
0.0475012
0.221835
-0.0507646
-0.034025
-0.0295553
0.127352
0.146399
0.14593
0.0130837
0.152259
0.126719
0.193896
0.210755
-0.0324109
-0.0276383
-0.0212104
0.132324
0.160491
0.130562
0.188154
-0.0506079
0.229264
-0.0482097
0.202197
0.21481
0.134225
0.161284
0.203068
-0.0332757
-0.0328103
0.0575068
0.0596458
0.0100123
0.0564742
0.0603712
0.104196
-0.0321431
-0.0303762
-0.0263818
0.024334
0.0178242
0.0661101
-0.0426898
-0.032341
-0.0337948
-0.0322993
0.146424
0.104225
0.10416
0.0109739
0.060747
0.059286
0.105921
0.150337
0.109335
0.150704
0.107184
0.149091
0.107497
0.232143
0.19202
0.234493
0.192316
0.233037
0.190825
0.233316
-0.0252224
-0.0211083
-0.0249737
-0.0272314
-0.0260684
0.111189
0.15514
0.11648
0.156974
0.113511
0.154127
0.112852
0.188188
0.229832
0.22955
0.196792
0.2425
0.198671
0.195762
0.239901
0.237083
0.238296
0.0686578
0.0692732
0.16065
0.117595
0.117359
0.202944
0.244695
0.244713
-0.0486673
0.0401228
-0.00430368
-0.0084241
0.124953
0.16661
0.169002
0.208317
0.145638
0.187446
0.166544
0.167115
0.166569
6.92074e-05
0.166375
0.333338
0.0833783
-0.00161856
0.249978
0.166492
0.333682
-0.0336051
-0.0167954
-0.0157443
-0.0177169
-0.00765906
-0.00392838
-0.0282649
0.0140175
-0.00604729
-0.00738112
0.174257
-0.00270009
0.167866
0.168351
0.170146
0.126984
0.21102
0.335138
0.0824168
-0.00238876
0.251155
0.167932
0.335236
0.0529801
0.00230302
0.000955426
-0.020576
0.00181877
0.129719
0.180559
0.224672
0.178765
0.183181
-0.0028527
0.16951
0.171398
0.17376
0.129514
0.213699
0.336711
0.0834819
0.25222
0.0826036
0.0827374
0.104741
0.0830377
0.251212
0.252077
0.23103
0.252467
0.0855349
0.0853594
0.0866372
0.0873803
0.109596
-0.0936929
-0.0913502
0.0889104
0.083342
-0.00890749
-0.0099403
-0.0322204
0.0106166
0.166593
0.167335
0.145747
0.187463
0.0610841
0.103579
0.0824669
0.0826671
0.0821715
-0.0331147
0.229154
0.250495
0.249991
0.167731
0.125258
0.20916
-0.0167855
-0.013612
-0.0116533
-0.028903
-0.0056218
-0.0921608
0.0855261
-0.00434332
-0.0486328
-0.00403406
-0.0262587
-0.00421568
0.252552
0.17242
0.172284
0.170825
0.15057
0.192199
0.170221
0.0827456
0.0838085
0.251831
0.253337
0.17209
0.128383
0.212568
-0.0867895
0.0918372
0.0899435
0.00109078
0.00161159
0.023737
0.00185777
-0.0206989
0.183
0.159905
0.203805
0.180987
0.0943322
0.266485
0.178617
0.155646
0.197505
0.176099
0.0850533
0.0867837
0.25717
0.254883
-0.0323783
0.00961741
-0.0103486
-0.0109397
-0.00924297
-0.0101664
0.147618
0.189443
0.169167
0.169378
0.0842238
0.0845897
0.10749
0.254858
0.25352
0.254046
0.233401
-0.00542498
-0.087375
0.0877175
0.0721639
0.0951304
0.116979
0.0930364
0.152616
0.173643
0.17428
0.194259
0.087662
0.0881864
0.111208
0.26149
0.239029
0.259117
0.0825604
0.0621648
0.0831005
0.104127
-0.092413
0.208341
-0.0911319
0.255343
0.235617
0.257188
0.256121
0.0907068
0.261244
-0.0524534
-0.0536007
0.0358708
0.0592103
0.0380145
0.124854
-0.0519364
-0.0512185
-0.0487746
0.0413795
0.0377743
0.0389625
0.125542
0.124584
0.124735
0.208866
0.208299
0.20831
0.166592
0.187409
0.145524
0.169009
-0.0528625
-0.052235
-0.05363
-0.0157367
-0.0331181
-0.0177494
-0.0146988
-0.0317967
-0.0306644
-0.00875405
-0.0507926
-0.04907
-0.0502066
0.0376909
-0.0266628
0.0169929
-0.00196109
0.00160064
0.0466139
-0.042138
0.259924
0.263352
0.177267
0.134485
0.219392
-0.0268393
0.141261
0.224857
0.179696
0.180684
-0.0534405
-0.0534035
-0.0530743
0.0379824
0.0598057
0.0879903
0.105524
0.0826919
0.12698
0.127246
0.252779
0.210723
0.211002
-0.0466922
0.0627627
0.0879526
0.110106
0.0885822
0.110925
0.0141705
-0.00944976
0.0387518
0.0396911
0.0881971
0.0823597
0.0616985
0.103925
0.082164
0.103321
-0.033966
-0.0533982
-0.0544504
-0.00890375
0.250028
0.229138
0.170595
-0.0155679
-0.0525995
-0.00562865
-0.0487416
-0.050367
-0.0465951
0.0819008
-0.0482025
-0.0483337
-0.0483169
0.0454562
-0.00452985
0.0179381
0.00329048
-0.0223176
0.00351133
0.0509235
0.0474751
0.0659698
0.119314
0.0934763
0.0927631
0.261451
0.264036
0.136116
0.133754
0.220153
0.217725
0.210732
0.0363701
0.212151
0.252858
0.245524
0.266463
0.265001
0.22143
-0.0436092
0.046077
0.0455294
0.138475
0.222398
-0.0532662
-0.0533688
0.107245
0.12732
0.039436
0.128524
-0.0464868
-0.0478103
-0.0244468
0.11347
0.137749
0.22916
-0.0864604
-0.0532763
-0.0333842
-0.0534302
0.127227
0.148091
0.125443
0.0369055
0.0589371
0.0141777
0.130501
0.107284
0.128766
0.15061
0.130292
0.213607
0.192279
0.233288
0.212272
0.213882
-0.0437397
-0.044926
-0.0222086
-0.0447659
-0.0458571
-0.0476869
0.138133
0.134122
0.134592
0.156852
0.210605
0.189879
0.231465
0.209011
0.221551
0.217396
0.198503
0.239551
0.218119
0.0469032
0.0694429
0.140014
0.137932
0.116315
0.159682
0.223948
0.222414
0.201598
0.243316
0.16732
0.145695
0.187454
-0.0155098
-0.03377
0.0144441
-0.00715591
0.170643
0.130209
0.213442
0.19384
0.172372
0.152248
0.00340676
-0.0227916
-0.0430386
-0.0438671
-0.0203563
0.00165797
0.174905
0.204033
0.162302
0.182183
0.0835102
0.10617
0.253342
0.232346
0.132069
0.132312
0.0100402
-0.0321588
-0.00900061
-0.0530632
-0.0534001
0.189869
0.148095
0.169004
0.125422
0.124878
0.208921
0.208315
0.229158
0.0597811
0.0842882
0.108749
0.252722
0.234141
0.253677
0.149216
0.170789
0.190935
0.128784
0.130186
0.213471
0.212271
0.130397
0.194089
0.152482
0.174441
0.213629
-0.0431741
-0.0442213
0.140972
0.137197
0.22485
0.223707
0.201164
0.158252
0.180383
0.256916
0.245702
0.265588
0.154342
0.176365
0.196083
0.0695775
0.114885
0.0927187
0.21536
0.215876
0.259061
0.237527
0.229381
0.235348
0.257141
0.243047
0.264047
-0.0938596
-0.00865646
0.0883404
0.0578282
0.0103285
0.0605815
0.0103667
0.00971727
0.169002
0.188185
0.229474
0.166729
0.188008
0.208432
0.187478
-0.00186593
0.166712
0.0825846
0.0827034
0.126077
0.333912
0.250305
0.251703
0.210145
-0.0157429
-0.0915455
0.0128454
0.0150852
0.0838207
0.0399309
-0.00550233
0.0182964
0.017601
0.0646455
0.0605203
0.194592
0.173263
0.254153
0.213844
0.234813
0.192966
0.233781
0.19224
0.19455
0.235799
0.233716
-0.00248138
0.168814
0.0829591
0.084229
0.128934
0.336094
0.251789
0.253283
0.213193
-0.0868603
0.0526737
0.0905094
0.0466197
0.00238209
0.0699662
0.178737
0.263009
0.219434
0.224544
0.202628
0.244447
-0.0321729
-0.032221
-0.0177447
-0.0332887
-0.0335132
-0.0534913
-0.0338626
-0.00496928
-0.0285085
-0.0291997
-0.0311705
-0.0511983
0.146432
0.104186
0.0374344
0.146288
0.167283
0.146417
0.125479
0.148101
0.0136543
0.125549
0.145671
0.125582
-0.00785362
0.0125412
0.0402036
0.014467
0.172995
0.152978
0.151142
0.131063
0.151508
0.0829635
0.169025
0.127833
0.105409
0.149935
0.148443
0.106897
0.209536
0.192813
0.214322
0.19313
0.252376
0.211813
0.231731
0.1916
0.190227
0.232887
-0.0520825
-0.0322331
-0.0314748
-0.00292328
-0.0274413
-0.0492841
-0.0268855
0.00147627
-0.0203933
-0.0223764
-0.0437487
-0.021109
-0.0259341
0.0245571
-0.00566218
0.00168952
-0.0055454
0.128449
0.162313
0.161978
0.119037
0.119173
0.130451
0.109861
0.151393
0.10808
0.110076
0.15061
0.108971
0.152953
0.129697
0.180823
0.157918
0.139635
0.158975
0.0859783
0.131305
0.173066
0.110301
0.155121
0.153438
0.111176
0.215525
0.188189
0.209003
0.189885
-0.0932823
-0.0496791
-0.0491704
-0.0325419
-0.0104021
0.0598229
0.0826342
0.231402
0.229188
0.250088
0.229688
0.189992
-0.0479951
-0.0261374
0.2138
0.199604
0.223166
0.200661
0.256412
0.196936
0.195108
0.238405
0.236521
0.134768
0.158929
0.1155
0.0453437
0.182214
0.161221
0.140024
0.159735
0.204025
0.203088
0.223891
0.201555
0.199429
0.240789
-0.0531702
-0.0335681
-0.0536965
-0.0343722
-0.009739
-0.0328695
-0.0324404
0.0377866
0.0569802
0.0596115
0.0138233
0.0384689
0.0586393
0.0600484
0.0823067
0.00918154
-0.0108316
0.0824638
0.105166
0.103558
0.104272
0.148213
-0.0518119
-0.0157324
-0.0330332
-0.0502072
-0.0136198
-0.0285856
-0.0483965
-0.00109851
-0.0266723
0.00112365
0.0231065
0.0694632
-0.006744
0.070482
0.0641014
0.0876941
0.0465436
0.0182699
-0.00466979
0.0891037
0.0886721
0.157655
0.112897
0.203969
0.245671
0.245675
-0.0433488
-0.042482
-0.0204136
-0.0532732
-0.032264
-0.0533311
-0.00892471
-0.0333588
-0.0532534
-0.0177519
-0.00908079
0.105524
0.148092
0.125415
0.16733
0.107269
0.104207
0.0591059
0.0831012
0.0393638
0.0138427
0.057898
0.0598469
0.0849717
0.0829108
0.0841691
0.106355
0.127897
0.106727
0.129223
0.149746
0.171006
0.108125
0.108213
0.149928
0.129534
0.171581
0.17
0.232537
0.211542
0.232795
0.252759
0.212715
0.191462
0.233931
0.233766
0.252863
0.191585
0.212892
0.252173
0.253749
-0.0465162
-0.0250511
-0.0464154
-0.0221493
-0.0438082
-0.0213071
-0.025131
-0.0472357
-0.0270374
-0.0481746
-0.0268359
-0.0230962
0.112004
0.133236
0.112248
0.135511
0.154461
0.17224
0.114985
0.114543
0.155623
0.135638
0.177846
0.174819
0.189872
0.208947
0.231563
0.22979
0.229475
0.196069
0.218781
0.241468
0.240711
0.259072
0.197301
0.219408
0.21662
0.23857
0.260472
0.237386
0.257537
0.255247
0.0465095
0.0682866
0.0697388
0.0932905
0.0695075
0.0936901
0.139357
0.159228
0.181845
0.117783
0.116218
0.115926
0.223893
0.201459
0.243218
0.244779
0.265511
0.243259
0.265465
0.0364402
0.0472403
0.210726
0.221815
-0.050567
-0.0343131
-0.0327335
-0.0214262
0.127376
0.133884
-0.0306919
-0.0425274
-0.0325783
-0.0255839
0.0401321
0.0832591
0.208318
0.187436
0.249954
-0.0488969
0.145664
0.124958
0.145597
0.18745
0.229149
0.0613784
0.0619687
0.103411
0.145725
0.104046
0.103765
0.229157
0.22916
0.187459
0.18819
0.0133297
0.195596
0.202172
0.146441
0.024656
0.153986
0.128801
0.212789
0.156245
0.0577404
0.0607491
0.0108769
0.0103577
0.0579267
0.060696
0.18819
0.229837
0.229542
0.0572418
0.016611
0.0589985
0.235886
0.193499
0.194936
0.234277
0.194021
0.235106
0.236242
0.0691603
0.0697883
0.202254
0.243785
0.243899
0.104401
0.146444
0.104257
0.0246209
0.109379
0.110423
0.151939
0.153315
0.10852
0.110832
0.152463
0.110035
0.156264
0.112333
0.145763
0.16661
0.167296
0.187465
0.170072
0.0237149
0.158431
0.181737
0.203708
0.180198
0.0861017
0.0623229
0.104175
0.0825916
0.0833363
-0.00985325
0.166608
0.17198
0.0841523
0.253479
0.0718548
0.107487
0.0915953
0.0896956
0.180739
0.0851555
0.254395
0.0928506
0.172842
0.0833093
0.255433
0.229161
-0.00559134
0.245349
0.264465
0.264549
0.0881413
0.0847272
-0.00878061
0.040048
0.0821358
-0.00469608
0.0526438
0.03608
0.264392
0.0404227
0.0384843
-0.00625594
0.173629
0.0240274
0.130933
-0.0100146
0.0390502
0.169003
0.124948
0.208317
0.0839792
0.253897
0.129979
0.213358
0.172736
0.130488
0.224639
0.179106
0.0912804
0.21435
0.254343
0.263274
0.0378681
0.210602
0.0360984
0.214992
0.215339
0.0475649
0.222
0.127247
0.131725
0.132104
0.135219
0.0144793
0.0592683
0.0364155
0.0390053
0.189876
0.23143
0.210723
0.20901
0.0586239
0.0156126
0.194601
0.235287
0.214485
0.217281
0.0477714
0.0689583
0.0473628
0.200617
0.242526
0.223301
0.221805
0.107378
0.1481
0.12738
0.125515
0.109519
0.153028
0.134032
0.13123
0.11237
0.156405
0.131991
0.13395
0.038937
0.040148
-0.00854524
0.0146016
0.125477
0.124958
0.167338
0.187466
0.145764
0.169001
0.189877
0.148103
0.209006
0.208317
0.172127
0.0526928
0.0474827
0.129363
0.132297
0.179463
0.203527
0.152587
0.224614
0.223384
0.178734
0.200593
0.156406
0.0849822
0.108468
0.0884491
0.0598351
0.107494
0.0826831
0.0623418
0.104192
0.252796
0.172999
0.193177
0.151583
0.0720436
0.0903457
0.107821
0.0900965
0.0686325
0.111732
0.254776
0.234386
0.231552
0.229161
0.262904
0.244085
0.263183
0.242637
0.0390061
0.0145838
0.167326
0.188198
0.189877
0.20903
-0.00666961
0.0368094
0.0146827
0.0150046
0.174479
0.216106
0.194479
0.195714
0.211813
0.0239318
0.0476452
0.179943
0.203639
0.202092
0.223342
0.200581
0.125524
0.146451
0.148101
0.0246457
0.157289
0.132871
0.152904
0.154098
0.0846229
0.171129
0.127773
0.10898
0.151134
0.107995
0.15202
0.2543
0.192728
0.233873
0.193629
0.234918
0.132102
0.155354
0.156356
0.0362461
0.055754
0.0596871
0.0598052
0.0607432
0.0826787
0.0143423
0.0389244
0.0106273
0.0385077
-0.00990175
-0.0101725
0.0826345
0.18987
0.208947
0.167338
0.229486
0.231545
0.229764
0.0601677
0.0856466
0.0587044
0.0570126
0.0827512
0.0429034
0.0168707
-0.00460112
0.0847165
0.0832006
0.234787
0.236665
0.252624
0.214045
0.193814
0.172764
0.194194
0.216663
0.171097
0.23473
0.254407
0.214784
0.173147
0.235234
0.255252
0.252693
0.0694151
0.0687027
0.0719872
0.0898962
0.0477932
0.0239982
0.0693206
0.0721875
0.0914854
0.22346
0.200818
0.179819
0.203587
0.242732
0.24345
0.242566
0.263886
0.244925
0.263881
0.244956
0.105636
0.107513
0.10438
0.148098
0.125458
0.10758
0.153332
0.109971
0.108935
0.109662
0.131517
0.109153
0.111026
0.130778
0.152276
0.133436
0.152622
0.110498
0.111918
0.133676
0.157069
0.113439
0.188162
0.202214
0.146409
0.0246443
0.15672
0.0607113
0.0577938
0.0108964
0.0690326
0.229821
0.244048
0.104326
0.109932
0.187466
0.145764
0.0622856
0.0623454
0.187466
0.229161
0.229161
0.104189
0.104173
0.145759
-0.26157
-0.135726
0.0162787
-0.260731
-0.134886
0.0154219
-0.258564
-0.087734
-0.260745
-0.134498
-0.260593
-0.134326
-0.258116
-0.0888784
-0.259595
-0.13101
0.0248163
-0.260005
-0.133872
0.0190808
-0.258304
-0.0887879
0.0845412
0.253298
-0.256739
-0.0858154
0.0861174
0.255262
-0.256889
-0.0877423
0.0851609
0.253994
-0.0862166
0.0841717
0.252457
-0.136353
-0.13612
-0.136222
0.0146046
0.0413213
0.124884
0.0391614
0.208403
-0.134733
-0.132403
-0.133492
-0.0252396
0.0401379
0.0407285
0.0418213
0.131141
0.0427408
0.131898
0.215306
0.21603
-0.133851
-0.0457793
-0.13561
-0.0287363
-0.133897
-0.0482699
0.062565
0.0608111
0.0162245
0.0610846
0.230545
0.187416
0.188996
0.229153
-0.0273011
-0.133074
-0.0472954
-0.134317
-0.0268865
-0.133809
-0.0474363
0.0218349
0.0458793
0.133324
0.0447691
0.133146
0.217605
0.217391
-0.0474541
-0.133444
-0.0475826
0.0182677
0.0650093
0.0660985
0.19891
0.199078
0.240425
-0.0743019
-0.0724243
-0.0741751
0.0156537
0.105201
0.145531
0.147244
0.103376
-0.0723696
-0.0721962
-0.0707778
-0.0705106
-0.0700175
0.064498
0.0172182
0.0186327
0.065318
0.157065
0.15729
0.112395
-0.020313
-0.132494
-0.0446444
-0.0332403
-0.0310178
-0.0737069
0.0607524
0.01574
0.0151967
0.0608375
-0.0684195
-0.0689509
-0.0219409
-0.0695042
-0.0321828
-0.0262764
0.0237259
0.0694284
0.0698473
0.158157
0.114811
0.11481
0.157939
0.199984
0.0161058
0.0620996
0.0162772
0.0609684
0.0176008
0.0248027
0.0697465
0.0692919
0.199336
0.19959
-0.030347
-0.0304968
-0.0312446
-0.0260197
0.113639
0.156295
0.156879
0.112767
-0.020471
-0.260426
-0.344509
-0.344765
-0.133166
-0.17661
-0.177314
0.0174979
-0.0041981
-0.00505729
-0.260844
-0.342921
-0.344636
-0.17728
-0.134575
-0.177904
-0.175927
-0.00552491
0.0175231
-0.00485064
-0.0066778
-0.259047
-0.342344
-0.342842
-0.170523
-0.175502
-0.129051
-0.17556
-0.000369632
0.0413006
-9.18024e-06
-0.045308
0.166403
0.124678
0.208213
0.16653
-0.254131
-0.341969
-0.0830278
-0.171768
-0.261184
-0.344813
-0.344342
-0.177692
-0.135503
-0.177379
-0.176638
-0.26114
-0.344398
-0.344478
-0.177827
-0.177322
-0.135166
-0.176844
-0.176822
-0.259647
-0.342758
-0.343931
-0.173508
-0.175444
-0.175264
-0.132793
-0.174822
-0.00494001
-0.00472615
0.0399328
-0.00412027
-0.0472105
-0.257548
-0.341086
-0.0885364
-0.173143
-0.259938
-0.344215
-0.34335
-0.175144
-0.131502
-0.174704
-0.174175
0.00206542
-0.260601
-0.344244
-0.343957
-0.176385
-0.175724
-0.133784
-0.176376
-0.175992
-0.00321297
-0.0258256
-0.260027
-0.343141
-0.34332
-0.174523
-0.175927
-0.176082
-0.133709
-0.174896
-0.00468221
-0.00470522
0.040697
-0.00336727
-0.0482132
0.17181
-0.257843
-0.340941
-0.0890809
-0.173175
-0.0020401
0.168591
0.335734
-0.258063
-0.342408
-0.340834
-0.170738
0.000729285
0.000759145
0.0447461