TITLE = "Example Grid File"
FILETYPE = GRID
VARIABLES = "X" "Y" "Z"
Zone
ZoneType=FEPOLYHEDRON
NODES=5496
FACES=13972
ELEMENTS=17744857
TotalNumFaceNodes=56287
NumConnectedBoundaryFaces=0
TotalNumBoundaryConnections=0
0.333333
0.5
0.666667
0.333333
0.5
0.666667
0.333323
0.500016
0.333365
0.500078
0.333386
0.500143
0.336029
0.502717
0.334592
0.501334
0.334029
0.500792
0.349864
0.516546
0.349673
0.516338
0.338729
0.505468
0.335657
0.502415
0.334489
0.501268
0.341226
0.507967
0.3403
0.507024
0.337445
0.504168
0.335582
0.502321
0.334527
0.501294
0.337087
0.503769
0.336637
0.503335
0.335726
0.502465
0.334937
0.501643
0.334319
0.501056
0.334628
0.501351
0.334527
0.501264
0.334297
0.50104
0.334086
0.500807
0.251798
0.418356
0.585022
0.257857
0.424505
0.591213
0.249994
0.416667
0.333328
0.583334
0.500002
0.249943
0.416672
0.334258
0.583363
0.500952
0.337098
0.503721
0.252682
0.419366
0.586075
0.266352
0.433007
0.342984
0.344026
0.599671
0.509633
0.510698
0.255358
0.422081
0.338399
0.588809
0.505153
0.256962
0.423631
0.338921
0.590467
0.505717
0.254098
0.420805
0.587603
0.335038
0.250872
0.253959
0.501698
0.417615
0.420295
0.58429
0.586968
0.259785
0.426301
0.592991
0.260768
0.427348
0.594069
0.341168
0.255046
0.255577
0.507834
0.421787
0.422308
0.588495
0.589064
0.249965
0.416667
0.583338
0.375776
0.542439
0.256214
0.422701
0.589341
0.261348
0.428162
0.594795
0.386608
0.553267
0.292446
0.459106
0.625747
0.303339
0.469924
0.249999
0.416667
0.333333
0.583333
0.5
0.666667
0.291665
0.375
0.333332
0.335658
0.458333
0.541667
0.5
0.502324
0.625
0.668896
0.33755
0.504241
0.265902
0.432989
0.349771
0.344897
0.599255
0.516442
0.511546
0.308075
0.391406
0.346602
0.346921
0.474735
0.55807
0.513256
0.513565
0.257838
0.424571
0.341023
0.591406
0.507764
0.252051
0.293409
0.250265
0.418438
0.376717
0.460046
0.416948
0.585091
0.543378
0.626697
0.583609
0.259113
0.259513
0.299493
0.425686
0.426065
0.382796
0.466163
0.592389
0.592812
0.549522
0.252328
0.249984
0.418989
0.416667
0.333612
0.291653
0.374998
0.335114
0.585653
0.583334
0.500282
0.458334
0.54167
0.501769
0.625007
0.263355
0.263644
0.429914
0.43023
0.301399
0.384659
0.342384
0.302388
0.385694
0.342781
0.5966
0.596907
0.468003
0.551334
0.509017
0.469019
0.552376
0.509419
0.294069
0.377401
0.460733
0.544067
0.627306
0.25067
0.333981
0.417311
0.375282
0.377105
0.500641
0.583969
0.54195
0.543763
0.266135
0.433006
0.599477
0.339431
0.25426
0.305198
0.506103
0.420901
0.388504
0.471836
0.58762
0.555179
0.344834
0.257673
0.30529
0.511514
0.388592
0.424352
0.471904
0.555246
0.591201
0.261718
0.344945
0.42826
0.38401
0.384412
0.511559
0.594927
0.55073
0.551109
0.291944
0.293796
0.458617
0.460429
0.625272
0.627074
0.300728
0.301131
0.467359
0.467747
0.261224
0.428199
0.594778
0.249998
0.416667
0.374999
0.583333
0.541667
0.291661
0.458334
0.625002
0.368356
0.53501
0.295736
0.379069
0.462359
0.545726
0.62901
0.326708
0.493343
0.294041
0.377376
0.460708
0.544042
0.627371
0.356205
0.397871
0.522869
0.564533
0.302596
0.386021
0.469253
0.552705
0.305783
0.3892
0.472442
0.555838
0.410014
0.57668
0.314539
0.272894
0.481202
0.439534
0.606192
0.285078
0.451688
0.333333
0.5
0.666667
0.336827
0.503481
0.349865
0.328875
0.370542
0.349143
0.348473
0.516531
0.495539
0.537206
0.515806
0.515126
0.253037
0.419477
0.586148
0.249997
0.416667
0.334455
0.583333
0.501115
0.253694
0.419753
0.336189
0.295422
0.378825
0.586411
0.502823
0.461977
0.545474
0.287214
0.265832
0.265184
0.266522
0.41221
0.453872
0.432477
0.431795
0.433195
0.341379
0.344658
0.578873
0.599139
0.598466
0.599851
0.508054
0.511332
0.251468
0.417786
0.584444
0.258205
0.424732
0.591387
0.261296
0.427994
0.594685
0.250081
0.416745
0.583412
0.377007
0.354891
0.396555
0.376688
0.54367
0.521554
0.563219
0.543346
0.255112
0.297705
0.421688
0.381293
0.464309
0.588368
0.547932
0.263735
0.303068
0.430706
0.38655
0.469782
0.597131
0.553157
0.387754
0.387776
0.365739
0.407396
0.554419
0.554423
0.532367
0.574083
0.293675
0.271569
0.313226
0.293367
0.460336
0.438223
0.479886
0.460015
0.626977
0.604871
0.626641
0.304467
0.304477
0.282486
0.324127
0.471085
0.471086
0.449068
0.490719
0.335704
0.291667
0.375
0.502371
0.458333
0.541667
0.669034
0.625
0.708333
0.314883
0.356549
0.334148
0.481548
0.523214
0.500813
0.646304
0.338511
0.505173
0.306701
0.391563
0.347467
0.473425
0.558177
0.514136
0.307743
0.306863
0.391072
0.390182
0.32591
0.36756
0.346028
0.326095
0.367749
0.3461
0.474399
0.473507
0.557736
0.55684
0.492553
0.53422
0.512666
0.492724
0.534399
0.512716
0.251485
0.27288
0.418013
0.397791
0.439454
0.584668
0.564451
0.606095
0.231555
0.273217
0.250837
0.398214
0.43988
0.417478
0.293382
0.376705
0.33469
0.356136
0.31447
0.564879
0.60654
0.584141
0.460032
0.543369
0.501345
0.522788
0.481124
0.626689
0.284264
0.262792
0.284457
0.262852
0.409215
0.450878
0.429345
0.409407
0.451055
0.429406
0.575895
0.596017
0.576066
0.596074
0.377248
0.543915
0.710494
0.355983
0.522648
0.308173
0.391546
0.474842
0.558205
0.379218
0.381615
0.545878
0.548287
0.389297
0.555829
0.347486
0.370127
0.369329
0.389219
0.366885
0.366921
0.514133
0.536787
0.535987
0.555886
0.533545
0.533575
0.314317
0.2534
0.294594
0.336546
0.295436
0.314013
0.272393
0.480981
0.419831
0.377894
0.355681
0.397343
0.461182
0.503196
0.46203
0.480675
0.439006
0.647597
0.586482
0.544528
0.522342
0.564004
0.627844
0.605663
0.32846
0.327659
0.305922
0.325246
0.325283
0.495122
0.494313
0.472558
0.491868
0.491895
0.293802
0.252277
0.335735
0.460468
0.418942
0.502403
0.627134
0.585607
0.669066
0.25112
0.397387
0.397652
0.377283
0.355727
0.334346
0.417676
0.564045
0.564312
0.543948
0.522382
0.501008
0.584337
0.296867
0.259202
0.299829
0.342485
0.286802
0.463525
0.425798
0.383178
0.411794
0.466447
0.509147
0.453457
0.592465
0.549842
0.578458
0.305323
0.264145
0.30297
0.347509
0.286022
0.472108
0.43082
0.386342
0.410991
0.469624
0.514163
0.452649
0.597465
0.552982
0.577646
0.264231
0.408542
0.40858
0.430809
0.575222
0.575251
0.597482
0.272437
0.272657
0.293954
0.314063
0.439054
0.439313
0.460613
0.480716
0.605692
0.605968
0.627256
0.283615
0.283651
0.450217
0.450248
0.291666
0.375
0.458333
0.541667
0.625
0.377366
0.544032
0.71061
0.354268
0.520935
0.250501
0.417281
0.583998
0.381647
0.548313
0.252648
0.41947
0.586231
0.389267
0.555664
0.312601
0.317004
0.293982
0.479268
0.358698
0.483662
0.377322
0.46064
0.645928
0.525366
0.543976
0.627322
0.2938
0.313178
0.460467
0.354847
0.479845
0.627133
0.521511
0.646452
0.395932
0.562601
0.296204
0.32577
0.297987
0.462818
0.367444
0.492435
0.381298
0.464648
0.534108
0.547995
0.304883
0.327989
0.471839
0.369674
0.49465
0.536331
0.270934
0.437598
0.604265
0.273557
0.315954
0.275316
0.316054
0.274325
0.315137
0.274456
0.398434
0.357622
0.400336
0.357774
0.399285
0.356795
0.399375
0.440098
0.482619
0.441901
0.482675
0.440943
0.481777
0.440923
0.5651
0.524284
0.566996
0.524429
0.565943
0.523451
0.566036
0.606754
0.607604
0.229832
0.22955
0.271498
0.313198
0.271211
0.396497
0.354881
0.396218
0.438163
0.479868
0.437878
0.563162
0.521545
0.562884
0.604821
0.646528
0.604541
0.28411
0.323014
0.281404
0.278371
0.321394
0.279713
0.320023
0.40911
0.364679
0.406339
0.403539
0.363264
0.404913
0.361893
0.450781
0.489654
0.447987
0.444966
0.488065
0.446376
0.486677
0.57578
0.531339
0.573019
0.570221
0.529925
0.571583
0.528566
0.286338
0.327963
0.286199
0.411336
0.369837
0.411487
0.452985
0.494644
0.452938
0.577994
0.536487
0.578079
0.291667
0.375
0.333333
0.335731
0.458333
0.541667
0.5
0.502398
0.625
0.708333
0.666667
0.669063
0.312499
0.354166
0.333332
0.333828
0.333333
0.479167
0.520833
0.5
0.500494
0.5
0.645834
0.66711
0.666667
0.333338
0.500044
0.41671
0.333682
0.500402
0.335531
0.502192
0.335138
0.335206
0.336589
0.294346
0.377705
0.501879
0.501884
0.503226
0.461025
0.544388
0.417971
0.335236
0.501991
0.307829
0.391566
0.349752
0.347494
0.474611
0.558126
0.516422
0.51415
0.349814
0.516481
0.336711
0.340443
0.297055
0.380377
0.338218
0.50348
0.507111
0.463772
0.547091
0.504934
0.419028
0.251212
0.252077
0.272591
0.252467
0.417895
0.418553
0.397532
0.439208
0.418963
0.584559
0.585201
0.564195
0.605858
0.585629
0.229154
0.270831
0.250495
0.249991
0.249996
0.395833
0.4375
0.417158
0.416667
0.416667
0.5625
0.604167
0.58382
0.583334
0.583333
0.33455
0.292571
0.375948
0.501222
0.459282
0.542621
0.252552
0.418479
0.338113
0.337202
0.336646
0.316231
0.357981
0.585144
0.504741
0.503832
0.50328
0.482846
0.524624
0.251831
0.253337
0.418555
0.419896
0.585239
0.586581
0.266485
0.433148
0.344702
0.322173
0.363818
0.342316
0.599812
0.511351
0.488797
0.530446
0.50894
0.25717
0.254883
0.423774
0.421564
0.590482
0.588293
0.31422
0.355878
0.335233
0.33566
0.254858
0.25352
0.254046
0.274621
0.480871
0.522532
0.50189
0.502295
0.421292
0.4199
0.420267
0.399567
0.441103
0.587924
0.586574
0.58695
0.566242
0.26149
0.280561
0.259117
0.428012
0.405467
0.447135
0.425631
0.594675
0.572126
0.59229
0.375041
0.541707
0.255343
0.257188
0.256121
0.276906
0.421896
0.423701
0.42266
0.402018
0.443467
0.588566
0.590365
0.589306
0.568685
0.261244
0.428166
0.59477
0.291704
0.458372
0.62504
0.252253
0.249999
0.418917
0.416667
0.333333
0.334029
0.3125
0.354167
0.585582
0.583333
0.5
0.500697
0.479167
0.520833
0.666667
0.667353
0.645833
0.6875
0.292199
0.291664
0.291666
0.375533
0.375
0.375
0.33337
0.354166
0.312497
0.335733
0.458865
0.458333
0.458333
0.542196
0.541667
0.541667
0.500038
0.520834
0.479167
0.5024
0.625482
0.625001
0.625
0.669044
0.336267
0.50294
0.338548
0.295876
0.379223
0.505249
0.462554
0.545919
0.259924
0.263352
0.431741
0.430634
0.349855
0.32843
0.370718
0.348818
0.34486
0.303026
0.386605
0.593275
0.596829
0.516523
0.495118
0.537367
0.515489
0.511524
0.469828
0.553192
0.308158
0.391499
0.344719
0.347337
0.474823
0.558161
0.511395
0.513987
0.252779
0.293685
0.294045
0.41921
0.376983
0.377335
0.460309
0.460665
0.585862
0.543643
0.543998
0.626953
0.627315
0.252392
0.250028
0.270824
0.419057
0.416704
0.395833
0.4375
0.335891
0.585721
0.58337
0.562501
0.604168
0.502547
0.261451
0.264036
0.428043
0.430649
0.30318
0.300745
0.386476
0.384036
0.594709
0.597322
0.469794
0.467353
0.553146
0.550712
0.294068
0.3774
0.460732
0.544066
0.627376
0.378199
0.544854
0.252858
0.266463
0.265001
0.286508
0.419519
0.433171
0.432005
0.412347
0.45331
0.586188
0.599796
0.598361
0.578884
0.340373
0.318524
0.360376
0.339442
0.304336
0.507048
0.485169
0.527056
0.506056
0.387674
0.470979
0.554352
0.305676
0.389014
0.472306
0.555663
0.29489
0.461515
0.628166
0.22916
0.249998
0.250205
0.270833
0.416667
0.416871
0.395833
0.4375
0.583333
0.583535
0.5625
0.604167
0.274602
0.294989
0.316207
0.296856
0.295778
0.379207
0.357891
0.399529
0.378297
0.380189
0.441159
0.461573
0.482852
0.463507
0.462374
0.545856
0.524544
0.566185
0.544949
0.546854
0.607812
0.628239
0.630166
0.231465
0.293933
0.27313
0.314899
0.292349
0.377274
0.356567
0.398129
0.375686
0.460599
0.439796
0.481567
0.459015
0.543941
0.523233
0.564795
0.54235
0.627264
0.60646
0.648227
0.625675
0.304681
0.300046
0.281018
0.300989
0.322673
0.388068
0.383796
0.364403
0.406062
0.384387
0.471351
0.466709
0.447649
0.467626
0.489325
0.554727
0.550478
0.531074
0.572738
0.551067
0.307223
0.305669
0.284953
0.326642
0.390641
0.389276
0.368361
0.410019
0.473895
0.472379
0.451621
0.493306
0.557287
0.555884
0.535017
0.576646
0.334056
0.3125
0.354167
0.500723
0.479167
0.520833
0.667379
0.645833
0.335955
0.294712
0.37845
0.358102
0.336713
0.316231
0.50262
0.461349
0.545118
0.524758
0.503366
0.482869
0.340225
0.329017
0.370709
0.348941
0.5069
0.495684
0.53737
0.515603
0.253342
0.273794
0.41972
0.398685
0.440326
0.586386
0.565335
0.606988
0.2506
0.229158
0.270833
0.417265
0.395833
0.4375
0.583931
0.5625
0.604167
0.252722
0.253677
0.274219
0.419269
0.399623
0.419913
0.440676
0.315373
0.336442
0.357038
0.295026
0.295526
0.3791
0.378357
0.585928
0.566272
0.586571
0.481998
0.503089
0.523685
0.4616
0.462083
0.545745
0.545004
0.256916
0.287339
0.265588
0.423557
0.412373
0.454015
0.432264
0.3206
0.342284
0.362303
0.590226
0.579031
0.598908
0.487243
0.508942
0.528957
0.259061
0.279001
0.425584
0.403961
0.445577
0.592236
0.570614
0.229381
0.271015
0.250197
0.396045
0.437681
0.416861
0.562711
0.604346
0.583527
0.275823
0.257141
0.297643
0.298749
0.401869
0.442462
0.423742
0.381641
0.382203
0.464243
0.46537
0.568548
0.590409
0.548278
0.548867
0.28445
0.264047
0.410047
0.451337
0.430822
0.576508
0.597401
0.356552
0.314776
0.335729
0.292169
0.291667
0.375595
0.375
0.523217
0.481443
0.502397
0.458838
0.458333
0.54226
0.541667
0.689859
0.648107
0.669061
0.625501
0.625
0.708867
0.295125
0.380202
0.360275
0.317597
0.340451
0.46178
0.546882
0.526946
0.484257
0.507113
0.308012
0.306182
0.391562
0.390683
0.368438
0.326385
0.347534
0.474699
0.472961
0.558213
0.557236
0.535045
0.493103
0.514191
0.252128
0.229474
0.335704
0.418793
0.354871
0.396141
0.502371
0.585457
0.521537
0.562806
0.669034
0.688174
0.333424
0.354687
0.375107
0.354205
0.500091
0.521351
0.541774
0.520872
0.333912
0.251703
0.293508
0.500628
0.417077
0.418511
0.376884
0.460217
0.585237
0.543567
0.254153
0.35721
0.33811
0.420616
0.379951
0.398789
0.35818
0.399725
0.402229
0.358711
0.400336
0.360603
0.523877
0.504763
0.587287
0.546609
0.565452
0.524833
0.566388
0.568866
0.525371
0.567006
0.527252
0.336094
0.253283
0.29653
0.502847
0.418615
0.420094
0.379903
0.463217
0.586845
0.546579
0.263009
0.347419
0.430454
0.386588
0.391547
0.369827
0.411431
0.514082
0.596468
0.553172
0.558008
0.536449
0.57786
0.313019
0.291774
0.312537
0.292874
0.335939
0.315429
0.317034
0.296754
0.316313
0.252376
0.335658
0.294924
0.273245
0.31582
0.314846
0.274233
0.479684
0.45844
0.479206
0.376222
0.459561
0.358709
0.380153
0.358046
0.502605
0.482085
0.483696
0.463401
0.48295
0.418975
0.378267
0.398153
0.35752
0.356498
0.399136
0.502301
0.461541
0.43982
0.482434
0.481484
0.440737
0.646224
0.625103
0.542892
0.626232
0.525368
0.546816
0.524696
0.585648
0.544947
0.564811
0.524144
0.523153
0.565798
0.606467
0.298765
0.382101
0.465438
0.548815
0.313125
0.2711
0.334012
0.29234
0.314902
0.313215
0.479792
0.437768
0.375676
0.356568
0.354885
0.500678
0.459007
0.481568
0.479883
0.646454
0.604433
0.54234
0.523234
0.52155
0.667313
0.625645
0.648157
0.646536
0.250088
0.229688
0.397763
0.395872
0.416754
0.396349
0.356115
0.564428
0.562539
0.583423
0.563013
0.522766
0.296286
0.273082
0.316357
0.274648
0.276779
0.315711
0.273946
0.318471
0.296906
0.342382
0.306276
0.324617
0.323953
0.256412
0.339611
0.321504
0.279917
0.277951
0.319567
0.462867
0.439635
0.482976
0.441077
0.443352
0.482379
0.440608
0.485101
0.380251
0.463554
0.389611
0.366295
0.365661
0.509056
0.472938
0.491263
0.490622
0.422977
0.363175
0.404835
0.402945
0.36132
0.506331
0.488142
0.446492
0.444523
0.486178
0.546938
0.556278
0.532957
0.532328
0.589677
0.529826
0.571499
0.569625
0.527984
0.303021
0.305266
0.327527
0.285478
0.348825
0.328986
0.307169
0.326503
0.328078
0.469796
0.472143
0.494232
0.452386
0.370658
0.390515
0.368179
0.369804
0.515484
0.495651
0.473825
0.493152
0.494745
0.537322
0.557169
0.534828
0.536457
0.365579
0.40724
0.532229
0.573919
0.272852
0.270867
0.27135
0.314455
0.439434
0.437538
0.438016
0.481101
0.606083
0.604206
0.604671
0.32394
0.282316
0.490567
0.448899
0.287318
0.328933
0.287222
0.412325
0.370725
0.412381
0.453984
0.495607
0.453922
0.578986
0.537384
0.579017
0.252759
0.252863
0.252173
0.253749
0.273848
0.294397
0.274132
0.295604
0.31544
0.335338
0.275393
0.274661
0.31571
0.295311
0.336814
0.335887
0.398761
0.377686
0.399016
0.419188
0.378929
0.357112
0.400364
0.399646
0.419195
0.357381
0.378694
0.418665
0.420032
0.440416
0.461006
0.44064
0.462257
0.482086
0.502002
0.442011
0.441157
0.482336
0.461874
0.50346
0.502534
0.565419
0.544349
0.565666
0.585848
0.545591
0.523761
0.567023
0.566308
0.585853
0.524034
0.545337
0.585323
0.5867
0.607065
0.627656
0.607305
0.628915
0.608678
0.231563
0.22979
0.250659
0.229475
0.250308
0.273228
0.271456
0.271135
0.314884
0.292273
0.334056
0.398226
0.396457
0.417325
0.396138
0.356558
0.375622
0.416975
0.439893
0.438121
0.437801
0.481551
0.45894
0.500724
0.564892
0.563122
0.583987
0.562805
0.523223
0.542287
0.583638
0.606556
0.604785
0.604466
0.648215
0.625601
0.667382
0.259072
0.260472
0.257537
0.255247
0.282979
0.282282
0.302338
0.321644
0.3437
0.280016
0.278645
0.299316
0.301747
0.320324
0.338581
0.34079
0.407951
0.407333
0.425721
0.385655
0.363356
0.405011
0.427011
0.403922
0.382917
0.424066
0.385372
0.362291
0.421898
0.449594
0.448947
0.468964
0.488284
0.510346
0.446609
0.445289
0.465954
0.468407
0.486975
0.505255
0.507438
0.574625
0.573985
0.592389
0.552329
0.53002
0.571694
0.593679
0.570596
0.549596
0.590707
0.552021
0.528961
0.588565
0.265511
0.265465
0.28485
0.286394
0.284833
0.307009
0.326594
0.348932
0.409829
0.41146
0.432151
0.41007
0.39069
0.368429
0.432233
0.451475
0.453068
0.451574
0.473715
0.493273
0.515597
0.576483
0.578103
0.598817
0.576646
0.557305
0.535072
0.598806
0.377397
0.389264
0.544063
0.555692
0.710731
0.293918
0.305273
0.460583
0.472199
0.62725
0.249954
0.375
0.354166
0.416689
0.541667
0.520834
0.583408
0.708333
0.312498
0.479167
0.645834
0.3125
0.291667
0.354167
0.479167
0.458333
0.395833
0.520833
0.645833
0.625
0.5625
0.270828
0.4375
0.604167
0.229157
0.22916
0.3125
0.270833
0.270832
0.395833
0.395833
0.354167
0.479167
0.4375
0.4375
0.5625
0.5625
0.520833
0.645833
0.604167
0.604167
0.354881
0.521547
0.688206
0.36023
0.526899
0.369835
0.536405
0.313174
0.479844
0.646508
0.318208
0.295862
0.484864
0.379226
0.462474
0.545886
0.327676
0.494428
0.229837
0.229542
0.396504
0.354872
0.396208
0.563169
0.521537
0.562873
0.688142
0.401729
0.358837
0.400327
0.401455
0.36126
0.402842
0.359917
0.568398
0.525481
0.56698
0.568124
0.527932
0.569505
0.526567
0.41131
0.36981
0.411309
0.577277
0.5364
0.577348
0.271232
0.312977
0.27108
0.437899
0.479645
0.437748
0.604564
0.646307
0.604413
0.273125
0.316812
0.274922
0.275748
0.315116
0.272601
0.317539
0.43971
0.483427
0.441392
0.442297
0.481781
0.439257
0.484178
0.284637
0.327042
0.28411
0.452031
0.493786
0.451416
0.3125
0.354167
0.333333
0.334015
0.479167
0.520833
0.5
0.500684
0.645833
0.6875
0.666667
0.667349
0.336813
0.503483
0.328911
0.370738
0.349835
0.348892
0.495619
0.537372
0.516506
0.51555
0.337592
0.504225
0.253479
0.420162
0.586864
0.254395
0.420732
0.587411
0.255433
0.421903
0.588538
0.229161
0.270833
0.25056
0.249999
0.395833
0.4375
0.417227
0.416667
0.333333
0.5625
0.604167
0.58389
0.583333
0.5
0.666667
0.28672
0.264465
0.264549
0.412329
0.453661
0.432593
0.431917
0.349694
0.57873
0.59782
0.59796
0.516363
0.264392
0.432473
0.597744
0.338673
0.505331
0.249999
0.416667
0.583333
0.337628
0.504277
0.253897
0.420142
0.295829
0.379368
0.586808
0.462388
0.546025
0.250183
0.416847
0.583511
0.254343
0.296882
0.420891
0.380562
0.463439
0.587561
0.547208
0.263274
0.430522
0.596707
0.335633
0.291667
0.375
0.502301
0.458333
0.541667
0.668962
0.625
0.708333
0.337992
0.504638
0.302405
0.39155
0.347408
0.469209
0.558085
0.514072
0.377271
0.543937
0.708746
0.38056
0.381637
0.547219
0.548315
0.389283
0.555728
0.296064
0.462664
0.29196
0.45863
0.625296
0.295669
0.462309
0.304931
0.471815
0.23143
0.356559
0.398095
0.377393
0.375683
0.523224
0.56476
0.544059
0.542348
0.689867
0.71072
0.708953
0.360178
0.401587
0.380483
0.383655
0.526827
0.568252
0.547128
0.550311
0.368424
0.40995
0.390653
0.38927
0.534987
0.576107
0.556988
0.555683
0.27113
0.31477
0.29391
0.29217
0.437795
0.481438
0.460576
0.458837
0.604459
0.648103
0.627243
0.625504
0.274465
0.317294
0.296195
0.29749
0.441034
0.483939
0.462788
0.464138
0.283744
0.326211
0.305225
0.30513
0.450976
0.492979
0.472222
0.472069
0.292226
0.291667
0.375681
0.375
0.334026
0.354167
0.3125
0.335727
0.356568
0.314884
0.458894
0.458333
0.542346
0.541667
0.500695
0.520833
0.479167
0.502395
0.523233
0.48155
0.625559
0.625
0.709008
0.708333
0.667352
0.6875
0.645833
0.66906
0.689899
0.648217
0.337189
0.503845
0.307282
0.306571
0.391557
0.390652
0.348764
0.370717
0.328257
0.347469
0.368432
0.326417
0.47411
0.473478
0.558074
0.55708
0.515424
0.537347
0.494972
0.514134
0.534983
0.493193
0.252796
0.419365
0.338229
0.359087
0.317166
0.586034
0.504868
0.525721
0.483778
0.254776
0.275492
0.42118
0.400661
0.441993
0.587822
0.567283
0.252245
0.231552
0.271186
0.250491
0.229161
0.270833
0.418909
0.398216
0.437852
0.417156
0.395833
0.4375
0.585574
0.564882
0.604517
0.583819
0.5625
0.604167
0.262904
0.280289
0.263183
0.284192
0.431283
0.412206
0.448381
0.430558
0.40999
0.45133
0.5963
0.577463
0.596659
0.576246
0.33404
0.375705
0.354882
0.356565
0.500708
0.542368
0.521549
0.523231
0.66737
0.709023
0.688185
0.689895
0.336718
0.381925
0.359262
0.361675
0.503385
0.548591
0.525915
0.528332
0.378495
0.545179
0.348867
0.370732
0.390656
0.369817
0.368432
0.515526
0.53736
0.557041
0.536384
0.534993
0.292238
0.313117
0.314877
0.458906
0.479786
0.481545
0.62557
0.646448
0.64821
0.297251
0.317077
0.318529
0.2543
0.337544
0.295111
0.316691
0.275029
0.27608
0.31773
0.463887
0.483712
0.485178
0.420846
0.358518
0.400074
0.401269
0.359653
0.504169
0.461821
0.4833
0.441514
0.442614
0.484378
0.587506
0.525163
0.566734
0.567915
0.526319
0.328783
0.306167
0.327265
0.326346
0.495496
0.473128
0.494022
0.493133
0.229486
0.231545
0.229764
0.25057
0.250265
0.396151
0.398208
0.396431
0.417235
0.356551
0.375619
0.333994
0.416931
0.562817
0.564874
0.563096
0.5839
0.523216
0.542284
0.500662
0.583595
0.689792
0.708779
0.667315
0.252624
0.254407
0.255252
0.252693
0.400685
0.403161
0.418947
0.379795
0.359464
0.337747
0.40095
0.42068
0.401681
0.380955
0.421744
0.383192
0.360174
0.336409
0.419323
0.338641
0.567341
0.569824
0.585619
0.546449
0.526117
0.504369
0.567604
0.587339
0.568361
0.547605
0.58839
0.549858
0.526836
0.503078
0.586002
0.505288
0.263886
0.263881
0.409981
0.411243
0.40998
0.431672
0.412277
0.390663
0.368418
0.348719
0.370708
0.43156
0.412264
0.576261
0.57693
0.576172
0.597293
0.578306
0.557087
0.535005
0.515383
0.537345
0.597263
0.578328
0.270965
0.27118
0.271179
0.312938
0.292022
0.437629
0.437846
0.437845
0.479605
0.458691
0.604295
0.604511
0.604511
0.64627
0.625355
0.274323
0.273162
0.295875
0.317194
0.275263
0.274526
0.296609
0.294141
0.316698
0.440835
0.439787
0.462442
0.483818
0.441771
0.441138
0.463197
0.460797
0.483352
0.283941
0.283394
0.284005
0.285229
0.304993
0.326196
0.327537
0.284033
0.451038
0.451065
0.451193
0.452543
0.47191
0.492952
0.494241
0.451314
0.354854
0.369823
0.521521
0.536401
0.688184
0.313157
0.327815
0.479826
0.49456
0.646492
0.229821
0.39649
0.41135
0.563155
0.577543
0.271229
0.285367
0.437898
0.452538
0.604563
0.354167
0.520833
0.6875
0.3125
0.479167
0.645833
0.229161
0.229161
0.354167
0.395833
0.395833
0.520833
0.5625
0.5625
0.6875
0.270833
0.270833
0.3125
0.4375
0.4375
0.479167
0.604167
0.604167
0.645833
0.253298
0.420077
0.586865
0.255262
0.421944
0.58885
0.253994
0.420719
0.587522
0.252457
0.419233
0.291821
0.375173
0.458515
0.541855
0.625189
0.298599
0.299389
0.381949
0.465306
0.382678
0.466051
0.548631
0.549431
0.397066
0.354185
0.355409
0.395853
0.563726
0.520853
0.522065
0.56252
0.301095
0.300776
0.384456
0.467814
0.384114
0.467442
0.551219
0.550844
0.365219
0.406863
0.531862
0.573559
0.272111
0.312515
0.313742
0.270842
0.438737
0.479186
0.480399
0.437519
0.605372
0.604188
0.323588
0.28197
0.490199
0.448541
0.333323
0.291637
0.374997
0.333411
0.500007
0.458341
0.541683
0.500102
0.338732
0.505423
0.335734
0.50248
0.338798
0.342847
0.299512
0.38287
0.341143
0.505463
0.509547
0.466251
0.549642
0.507901
0.338148
0.34186
0.298641
0.381966
0.339629
0.34077
0.504862
0.508615
0.465326
0.548738
0.506418
0.507472
0.336363
0.336565
0.503107
0.503286
0.418946
0.33529
0.50201
0.420397
0.336933
0.503633
0.419965
0.336206
0.502908
0.419094
0.335297
0.501999
0.41828
0.251012
0.417645
0.584304
0.256322
0.256644
0.423001
0.423333
0.589752
0.590029
0.33333
0.333337
0.312493
0.354164
0.500001
0.500009
0.479168
0.520835
0.250032
0.249945
0.41676
0.416668
0.583446
0.583348
0.342835
0.50948
0.255359
0.422071
0.339655
0.296739
0.380096
0.588793
0.506365
0.463436
0.546825
0.258598
0.256328
0.257413
0.425197
0.423031
0.424081
0.339972
0.297265
0.380599
0.591994
0.589787
0.5909
0.506687
0.464005
0.547369
0.334319
0.500978
0.259616
0.426146
0.592839
0.24998
0.249975
0.270814
0.416675
0.416667
0.395833
0.4375
0.583344
0.583336
0.562503
0.604171
0.375413
0.542076
0.25931
0.426021
0.592834
0.385257
0.551946
0.292081
0.458747
0.625398
0.301982
0.468597
0.257778
0.259358
0.424512
0.42615
0.342709
0.299334
0.382658
0.591347
0.592981
0.509408
0.466038
0.549454
0.29267
0.250397
0.271116
0.375993
0.459324
0.417058
0.396124
0.437792
0.542655
0.625975
0.583724
0.562786
0.604445
0.260377
0.279895
0.426924
0.404833
0.446497
0.593616
0.571526
0.333728
0.354455
0.312789
0.291664
0.291658
0.375007
0.374999
0.500394
0.521123
0.479458
0.458342
0.458334
0.541677
0.541668
0.625012
0.625003
0.301223
0.38449
0.343603
0.363167
0.321524
0.467848
0.551176
0.510232
0.52984
0.488151
0.37511
0.541793
0.336706
0.252955
0.297071
0.503462
0.419103
0.419728
0.380393
0.463754
0.586497
0.54713
0.338637
0.254754
0.299461
0.29906
0.505349
0.421465
0.420267
0.382814
0.466208
0.382394
0.465766
0.588288
0.549587
0.549192
0.337369
0.253171
0.297995
0.504112
0.419914
0.419554
0.381358
0.464706
0.586672
0.548085
0.335871
0.502587
0.418646
0.418645
0.250126
0.333496
0.271842
0.312505
0.31349
0.270829
0.291751
0.416841
0.396815
0.354175
0.355154
0.395844
0.50018
0.438485
0.479179
0.480151
0.437511
0.458453
0.583516
0.56348
0.520846
0.521818
0.562513
0.605135
0.604181
0.256975
0.297956
0.34028
0.322029
0.280413
0.257736
0.298291
0.341045
0.300254
0.423628
0.381314
0.363662
0.405305
0.464688
0.506971
0.488648
0.446997
0.424361
0.381652
0.383546
0.464992
0.507741
0.466896
0.590342
0.548051
0.530326
0.57201
0.591127
0.548375
0.550313
0.251289
0.25
0.376266
0.396238
0.417869
0.354574
0.375019
0.33335
0.334545
0.416686
0.542926
0.562909
0.584521
0.521239
0.541687
0.50002
0.501204
0.583354
0.259367
0.301011
0.342809
0.259099
0.342434
0.42611
0.384368
0.467707
0.509498
0.425779
0.50917
0.59295
0.551121
0.592553
0.26117
0.406061
0.386065
0.364419
0.344366
0.427699
0.572759
0.552714
0.531078
0.511015
0.594357
0.292951
0.271243
0.31291
0.29168
0.459594
0.437908
0.479575
0.458353
0.626232
0.604564
0.625022
0.28117
0.302778
0.322801
0.447752
0.469398
0.489406
0.255437
0.422116
0.589061
0.301116
0.467842
0.384498
0.551266
0.291641
0.374997
0.458337
0.541676
0.625019
0.354165
0.395833
0.520834
0.562502
0.270819
0.312495
0.4375
0.479167
0.604169
0.297224
0.380581
0.463971
0.547319
0.337947
0.338171
0.295781
0.379121
0.504714
0.50489
0.462477
0.545873
0.254577
0.25478
0.421314
0.421508
0.588067
0.588253
0.255521
0.338871
0.296288
0.296479
0.422259
0.379636
0.379809
0.505642
0.463005
0.46318
0.589002
0.546368
0.546589
0.350076
0.350198
0.350232
0.350233
0.35006
0.350194
0.350231
0.350233
0.370926
0.371036
0.371066
0.371067
0.370928
0.371037
0.371066
0.371067
0.516749
0.516867
0.516899
0.5169
0.51673
0.516862
0.516899
0.5169
0.537573
0.537698
0.537732
0.537733
0.53758
0.537699
0.537732
0.537733
0.349952
0.350156
0.350229
0.350233
0.349668
0.350063
0.350221
0.350233
0.370628
0.370955
0.371061
0.371067
0.370815
0.371002
0.371064
0.371067
0.516617
0.516822
0.516896
0.5169
0.516333
0.51673
0.516888
0.5169
0.537292
0.537621
0.537727
0.537733
0.537479
0.537668
0.53773
0.537733
0.329147
0.329335
0.329397
0.3294
0.328961
0.329288
0.329394
0.3294
0.495813
0.496002
0.496064
0.496067
0.495626
0.495955
0.496061
0.496067
0.329184
0.329351
0.329398
0.3294
0.329111
0.329331
0.329397
0.3294
0.350044
0.350189
0.350231
0.350233
0.329215
0.329357
0.329398
0.3294
0.49587
0.496022
0.496065
0.496067
0.4958
0.496003
0.496064
0.496067
0.370884
0.371024
0.371065
0.371067
0.51671
0.516855
0.516898
0.5169
0.495881
0.496023
0.496065
0.496067
0.537549
0.53769
0.537731
0.537733
0.266624
0.266824
0.266896
0.2669
0.266343
0.266732
0.266888
0.2669
0.433286
0.43349
0.433563
0.433567
0.412481
0.412668
0.41273
0.412733
0.412295
0.412622
0.412727
0.412733
0.433002
0.433398
0.433555
0.433567
0.599951
0.600155
0.600229
0.600233
0.579146
0.579335
0.579397
0.5794
0.57896
0.579288
0.579394
0.5794
0.599667
0.600063
0.600221
0.600233
0.287298
0.287622
0.287727
0.287733
0.287483
0.287669
0.28773
0.287733
0.45396
0.454288
0.454394
0.4544
0.454146
0.454335
0.454397
0.4544
0.391671
0.391844
0.391897
0.3919
0.391543
0.391818
0.391896
0.3919
0.558336
0.558511
0.558564
0.558567
0.558208
0.558485
0.558563
0.558567
0.308338
0.308511
0.308564
0.308567
0.30821
0.308485
0.308563
0.308567
0.475002
0.475176
0.47523
0.475233
0.474873
0.475151
0.475229
0.475233
0.377555
0.377869
0.378086
0.378106
0.356529
0.356958
0.357248
0.357273
0.356387
0.356613
0.356666
0.356667
0.377361
0.37749
0.377501
0.3775
0.398055
0.398279
0.398332
0.398333
0.398195
0.398624
0.398914
0.398939
0.544221
0.544536
0.544753
0.544773
0.523195
0.523624
0.523914
0.523939
0.523053
0.523279
0.523332
0.523333
0.544027
0.544157
0.544168
0.544167
0.564719
0.564946
0.564999
0.565
0.56486
0.565291
0.565581
0.565606
0.266714
0.266856
0.266898
0.2669
0.266526
0.266808
0.266896
0.2669
0.266709
0.266857
0.266898
0.2669
0.287547
0.28769
0.287731
0.287733
0.350026
0.350185
0.350231
0.350233
0.328841
0.329235
0.329392
0.3294
0.32919
0.329351
0.329398
0.3294
0.35007
0.350197
0.350232
0.350233
0.287501
0.287679
0.287731
0.287733
0.287032
0.28753
0.287723
0.287733
0.433378
0.433522
0.433565
0.433567
0.412551
0.412691
0.412731
0.412733
0.370922
0.371035
0.371066
0.371067
0.370919
0.371034
0.371066
0.371067
0.433306
0.433505
0.433564
0.433567
0.412566
0.412696
0.412732
0.412733
0.412584
0.4127
0.412732
0.412733
0.433395
0.433529
0.433565
0.433567
0.454214
0.454357
0.454398
0.4544
0.516693
0.516852
0.516898
0.5169
0.495517
0.495904
0.496059
0.496067
0.49586
0.496019
0.496065
0.496067
0.516738
0.516864
0.516899
0.5169
0.454183
0.45435
0.454398
0.4544
0.453769
0.454215
0.454391
0.4544
0.600043
0.600188
0.600231
0.600233
0.579215
0.579357
0.579398
0.5794
0.537584
0.5377
0.537732
0.537733
0.537576
0.537699
0.537732
0.537733
0.599864
0.600142
0.600229
0.600233
0.579165
0.579345
0.579398
0.5794
0.579235